,Formula,Elements,Composition,Symmetry,Crystal system,Density [g/m$^3$],Volume [$\mathring{A}^3$],Bulk modulus[GPa],Shear modulus [GPa],Poisson,Metal,Experimental report
2817,Ni3B,"[Element B, Element Ni]",Ni3 B1,crystal_system=<CrystalSystem.ortho: 'Orthorhombic'> symbol='Pnma' number=62 point_group='mmm' symprec=0.1 version='1.16.2',ortho,8.484222190133446,146.3140082138149,224.70161210168686,81.57548698381639,0.3380754047648422,True,True
2818,Ti3B4,"[Element B, Element Ti]",Ti3 B4,crystal_system=<CrystalSystem.ortho: 'Orthorhombic'> symbol='Immm' number=71 point_group='mmm' symprec=0.1 version='1.16.2',ortho,4.569244257857268,67.90256865024195,224.79799045774678,213.45681750164445,0.13937045473798984,True,True
2819,AlMo3,"[Element Al, Element Mo]",Al1 Mo3,crystal_system=<CrystalSystem.cubic: 'Cubic'> symbol='Pm-3n' number=223 point_group='m-3m' symprec=0.1 version='1.16.2',cubic,8.613730976106718,121.37371239503442,224.92447410257813,121.34553019511826,0.27136796615575465,True,True
2820,Ta2NbRu,"[Element Nb, Element Ru, Element Ta]",Ta2 Nb1 Ru1,crystal_system=<CrystalSystem.cubic: 'Cubic'> symbol='Fm-3m' number=225 point_group='m-3m' symprec=0.1 version='1.16.2',cubic,13.831033774338493,66.7374123702255,225.14790036964155,91.63265498716937,0.3208144712212517,True,False
2821,Co2Si,"[Element Co, Element Si]",Co2 Si1,crystal_system=<CrystalSystem.ortho: 'Orthorhombic'> symbol='Pnma' number=62 point_group='mmm' symprec=0.1 version='1.16.2',ortho,7.735513406677512,125.322678636893,225.30943498575763,107.20505937552443,0.29466129731263696,True,True
2822,V3Ru,"[Element Ru, Element V]",V3 Ru1,crystal_system=<CrystalSystem.cubic: 'Cubic'> symbol='Fm-3m' number=225 point_group='m-3m' symprec=0.1 version='1.16.2',cubic,7.992371972025123,52.75051480593781,225.4397224021115,91.60906958790947,0.32105931544397376,True,False
2823,TiZnIr2,"[Element Ir, Element Ti, Element Zn]",Ti1 Zn1 Ir2,crystal_system=<CrystalSystem.cubic: 'Cubic'> symbol='Fm-3m' number=225 point_group='m-3m' symprec=0.1 version='1.16.2',cubic,14.641875050468876,56.44542765108627,225.45397627759627,102.87101567748384,0.3019763863895624,True,False
2824,NbGeRu2,"[Element Ge, Element Nb, Element Ru]",Nb1 Ge1 Ru2,crystal_system=<CrystalSystem.cubic: 'Cubic'> symbol='Fm-3m' number=225 point_group='m-3m' symprec=0.1 version='1.16.2',cubic,10.296243435435656,59.29906398147421,225.50148733955416,70.10570413538198,0.3591519899269948,True,False
2825,ScRe2,"[Element Re, Element Sc]",Sc1 Re2,crystal_system=<CrystalSystem.hex_: 'Hexagonal'> symbol='P6_3/mmc' number=194 point_group='6/mmm' symprec=0.1 version='1.16.2',hex_,13.38960337373169,207.04393543398834,225.99173217943928,74.52731062264786,0.35144107179690914,True,True
2826,TaZnRu2,"[Element Ru, Element Ta, Element Zn]",Ta1 Zn1 Ru2,crystal_system=<CrystalSystem.cubic: 'Cubic'> symbol='Fm-3m' number=225 point_group='m-3m' symprec=0.1 version='1.16.2',cubic,12.79690529067264,58.19739800927026,226.07981231164868,83.8106591986165,0.3350292330704059,True,False
2827,ScNbOs2,"[Element Nb, Element Os, Element Sc]",Sc1 Nb1 Os2,crystal_system=<CrystalSystem.cubic: 'Cubic'> symbol='Fm-3m' number=225 point_group='m-3m' symprec=0.1 version='1.16.2',cubic,13.224858059520228,65.08156163808965,226.17917746508556,114.17647759922946,0.2839514449857706,True,False
2828,TiGeRu2,"[Element Ge, Element Ru, Element Ti]",Ti1 Ge1 Ru2,crystal_system=<CrystalSystem.cubic: 'Cubic'> symbol='Fm-3m' number=225 point_group='m-3m' symprec=0.1 version='1.16.2',cubic,9.698598530547057,55.241790505485504,226.40909942370786,116.20999159954988,0.2808564048742725,True,False
2829,Ti2TcIr,"[Element Ir, Element Tc, Element Ti]",Ti2 Tc1 Ir1,crystal_system=<CrystalSystem.cubic: 'Cubic'> symbol='Fm-3m' number=225 point_group='m-3m' symprec=0.1 version='1.16.2',cubic,10.872793169410789,58.94407290818234,226.4422997591588,116.3020185360433,0.28073568733087023,True,False
2830,B6O,"[Element B, Element O]",B6 O1,crystal_system=<CrystalSystem.trig: 'Trigonal'> symbol='R-3m' number=166 point_group='-3m' symprec=0.1 version='1.16.2',trig,2.6217735270179925,102.43459585845005,226.99744434715177,207.46292258183365,0.14973544598547686,False,True
2831,LiRu2W,"[Element Li, Element Ru, Element W]",Li1 Ru2 W1,crystal_system=<CrystalSystem.cubic: 'Cubic'> symbol='Fm-3m' number=225 point_group='m-3m' symprec=0.1 version='1.16.2',cubic,12.008501747476508,54.333228599866594,227.01183837813443,84.74989274333602,0.33399417407637516,True,False
2832,BeCo2Si,"[Element Be, Element Co, Element Si]",Be1 Co2 Si1,crystal_system=<CrystalSystem.cubic: 'Cubic'> symbol='Fm-3m' number=225 point_group='m-3m' symprec=0.1 version='1.16.2',cubic,6.88992983489489,37.347825252467295,227.10765383471272,130.27361933118283,0.25922714115472045,True,False
2833,Al(CrB)2,"[Element Al, Element B, Element Cr]",Al1 Cr2 B2,crystal_system=<CrystalSystem.ortho: 'Orthorhombic'> symbol='Cmmm' number=65 point_group='mmm' symprec=0.1 version='1.16.2',ortho,5.452147327232024,46.475483902711154,227.1089610420454,174.6706500585571,0.19391737133510611,True,True
2834,Ti2TcOs,"[Element Os, Element Tc, Element Ti]",Ti2 Tc1 Os1,crystal_system=<CrystalSystem.cubic: 'Cubic'> symbol='Fm-3m' number=225 point_group='m-3m' symprec=0.1 version='1.16.2',cubic,10.829776179076006,58.873536407878106,227.14948773931238,99.64793566720402,0.30863834001264473,True,False
2835,V2PC,"[Element C, Element P, Element V]",V2 P1 C1,crystal_system=<CrystalSystem.hex_: 'Hexagonal'> symbol='P6_3/mmc' number=194 point_group='6/mmm' symprec=0.1 version='1.16.2',hex_,5.442958097524571,88.39240568087251,227.1604322483987,149.32130690344462,0.23040291475796532,True,True
2836,Fe2B,"[Element B, Element Fe]",Fe2 B1,crystal_system=<CrystalSystem.tet: 'Tetragonal'> symbol='I4/mcm' number=140 point_group='4/mmm' symprec=0.1 version='1.16.2',tet,7.420077583830263,54.82899441398073,227.1940060442863,144.90871739251742,0.2370048244393149,True,True
2837,FeGeRu2,"[Element Fe, Element Ge, Element Ru]",Fe1 Ge1 Ru2,crystal_system=<CrystalSystem.cubic: 'Cubic'> symbol='Fm-3m' number=225 point_group='m-3m' symprec=0.1 version='1.16.2',cubic,10.354383798340583,53.022539977957116,227.23569471642017,99.29533528290595,0.30929252046024514,True,False
2838,VZnRu2,"[Element Ru, Element V, Element Zn]",V1 Zn1 Ru2,crystal_system=<CrystalSystem.cubic: 'Cubic'> symbol='Fm-3m' number=225 point_group='m-3m' symprec=0.1 version='1.16.2',cubic,9.93520586836767,53.23150064507507,227.5346772200004,81.33218921775936,0.3403030508404702,True,False
2839,NbCr2,"[Element Cr, Element Nb]",Nb1 Cr2,crystal_system=<CrystalSystem.cubic: 'Cubic'> symbol='Fd-3m' number=227 point_group='m-3m' symprec=0.1 version='1.16.2',cubic,7.865280939285537,83.13950557442273,227.60198458661864,63.718094759510606,0.37197044445007393,True,True
2840,MnGeRu2,"[Element Ge, Element Mn, Element Ru]",Mn1 Ge1 Ru2,crystal_system=<CrystalSystem.cubic: 'Cubic'> symbol='Fm-3m' number=225 point_group='m-3m' symprec=0.1 version='1.16.2',cubic,10.276161972945692,53.279589804726626,227.6206219017353,107.6051587963259,0.29580712010564575,True,False
2841,Nb2C,"[Element C, Element Nb]",Nb2 C1,crystal_system=<CrystalSystem.ortho: 'Orthorhombic'> symbol='Pnma' number=62 point_group='mmm' symprec=0.1 version='1.16.2',ortho,7.678055954336023,171.13372737768208,227.68831494426644,117.26559621854861,0.28021781588297834,True,True
2842,Ti2BRh6,"[Element B, Element Rh, Element Ti]",Ti2 B1 Rh6,crystal_system=<CrystalSystem.cubic: 'Cubic'> symbol='Fm-3m' number=225 point_group='m-3m' symprec=0.1 version='1.16.2',cubic,9.964966001180052,120.64203251838197,227.79000756782142,112.57678214336039,0.2878436445918798,True,True
2843,MnNbP,"[Element Mn, Element Nb, Element P]",Mn1 Nb1 P1,crystal_system=<CrystalSystem.ortho: 'Orthorhombic'> symbol='Pnma' number=62 point_group='mmm' symprec=0.1 version='1.16.2',ortho,7.206982868602403,164.8038247048957,227.96677396751392,99.78157212112498,0.30901388774822525,True,True
2844,CrNi2,"[Element Cr, Element Ni]",Cr1 Ni2,crystal_system=<CrystalSystem.ortho: 'Orthorhombic'> symbol='Immm' number=71 point_group='mmm' symprec=0.1 version='1.16.2',ortho,8.845811665123046,31.796621193391495,228.29387308110694,112.47690135972647,0.28840716229885,True,False
2845,VGaFe2,"[Element Fe, Element Ga, Element V]",V1 Ga1 Fe2,crystal_system=<CrystalSystem.cubic: 'Cubic'> symbol='Fm-3m' number=225 point_group='m-3m' symprec=0.1 version='1.16.2',cubic,8.493634454298917,45.42622202854823,228.30333758003206,123.42895331388644,0.27095817751477125,True,True
2846,TiIr,"[Element Ir, Element Ti]",Ti1 Ir1,crystal_system=<CrystalSystem.tet: 'Tetragonal'> symbol='P4/mmm' number=123 point_group='4/mmm' symprec=0.1 version='1.16.2',tet,13.36228762222816,59.67074988004432,228.3574811681848,80.67648935670903,0.341965520496535,True,True
2847,Co2P,"[Element Co, Element P]",Co2 P1,crystal_system=<CrystalSystem.ortho: 'Orthorhombic'> symbol='Pnma' number=62 point_group='mmm' symprec=0.1 version='1.16.2',ortho,7.770510525345912,127.22710368566405,228.4337519665686,78.86608469534883,0.34519211858635035,True,True
2848,TaFe2,"[Element Fe, Element Ta]",Ta1 Fe2,crystal_system=<CrystalSystem.hex_: 'Hexagonal'> symbol='P6_3/mmc' number=194 point_group='6/mmm' symprec=0.1 version='1.16.2',hex_,11.996172832499434,162.03055387482496,228.47099887150932,92.56072756519461,0.3215349862950928,True,True
2849,Mg(B6C)2,"[Element B, Element C, Element Mg]",Mg1 B12 C2,crystal_system=<CrystalSystem.ortho: 'Orthorhombic'> symbol='Imma' number=74 point_group='mmm' symprec=0.1 version='1.16.2',ortho,2.7176432580351557,217.5951008007281,228.5489548424472,214.01046757223304,0.14318003099115595,False,True
2850,WO2,"[Element O, Element W]",W1 O2,crystal_system=<CrystalSystem.tet: 'Tetragonal'> symbol='P4_2/mnm' number=136 point_group='4/mmm' symprec=0.1 version='1.16.2',tet,9.601453835391395,74.65718538726982,228.80559623568644,75.10032050402936,0.35207097858543596,True,True
2851,TiFe2Si,"[Element Fe, Element Si, Element Ti]",Ti1 Fe2 Si1,crystal_system=<CrystalSystem.cubic: 'Cubic'> symbol='Fm-3m' number=225 point_group='m-3m' symprec=0.1 version='1.16.2',cubic,6.92322236784906,45.006166962292156,228.8516232936496,145.67131742051924,0.2374428016507173,False,False
2852,TaTiTc2,"[Element Ta, Element Tc, Element Ti]",Ta1 Ti1 Tc2,crystal_system=<CrystalSystem.cubic: 'Cubic'> symbol='Fm-3m' number=225 point_group='m-3m' symprec=0.1 version='1.16.2',cubic,11.42950868199612,61.71933754459441,229.03702602896848,101.047209579715,0.3076898806478265,True,False
2853,MgTaOs2,"[Element Mg, Element Os, Element Ta]",Mg1 Ta1 Os2,crystal_system=<CrystalSystem.cubic: 'Cubic'> symbol='Fm-3m' number=225 point_group='m-3m' symprec=0.1 version='1.16.2',cubic,15.837413838548438,61.411486052317514,229.09655134902454,98.67722369449717,0.3116767516118994,True,False
2854,HfOs,"[Element Hf, Element Os]",Hf1 Os1,crystal_system=<CrystalSystem.cubic: 'Cubic'> symbol='Pm-3m' number=221 point_group='m-3m' symprec=0.1 version='1.16.2',cubic,17.943945775864496,34.12147875860676,229.23093036542272,116.97940015178949,0.28193716380886824,True,True
2855,VGaTc2,"[Element Ga, Element Tc, Element V]",V1 Ga1 Tc2,crystal_system=<CrystalSystem.cubic: 'Cubic'> symbol='Fm-3m' number=225 point_group='m-3m' symprec=0.1 version='1.16.2',cubic,9.51969826820487,55.23639073851782,229.30241509612136,74.44939054172347,0.3535146405710898,True,False
2856,AlIr,"[Element Al, Element Ir]",Al1 Ir1,crystal_system=<CrystalSystem.cubic: 'Cubic'> symbol='Pm-3m' number=221 point_group='m-3m' symprec=0.1 version='1.16.2',cubic,13.554700780623982,26.853247635479867,229.30849865937574,115.53642046417994,0.2843026195147433,True,True
2857,TiSiTc2,"[Element Si, Element Tc, Element Ti]",Ti1 Si1 Tc2,crystal_system=<CrystalSystem.cubic: 'Cubic'> symbol='Fm-3m' number=225 point_group='m-3m' symprec=0.1 version='1.16.2',cubic,8.206992584150097,55.02475430301636,229.4262280917401,86.4735194466266,0.3325783669322627,True,False
2858,CrRh3,"[Element Cr, Element Rh]",Cr1 Rh3,crystal_system=<CrystalSystem.cubic: 'Cubic'> symbol='Pm-3m' number=221 point_group='m-3m' symprec=0.1 version='1.16.2',cubic,10.997720253127996,54.46377524873818,229.77454539320757,151.28486882907563,0.23004400753563012,True,True
2859,Ni3Mo,"[Element Mo, Element Ni]",Ni3 Mo1,crystal_system=<CrystalSystem.ortho: 'Orthorhombic'> symbol='Pmmn' number=59 point_group='mmm' symprec=0.1 version='1.16.2',ortho,9.769613810100632,92.47042468297782,230.0111747544097,89.12277113345743,0.3284244669650979,True,True
2860,AlFe3C,"[Element Al, Element C, Element Fe]",Al1 Fe3 C1,crystal_system=<CrystalSystem.cubic: 'Cubic'> symbol='Pm-3m' number=221 point_group='m-3m' symprec=0.1 version='1.16.2',cubic,6.300659849414099,54.43025908535758,230.12027896058686,97.54991575992483,0.3142875025511542,True,True
2861,TiRh3,"[Element Rh, Element Ti]",Ti1 Rh3,crystal_system=<CrystalSystem.cubic: 'Cubic'> symbol='Pm-3m' number=221 point_group='m-3m' symprec=0.1 version='1.16.2',cubic,10.572691358222912,56.004740154874476,230.4850315365345,129.11856500569084,0.26397262422566997,True,True
2862,NbAlRu2,"[Element Al, Element Nb, Element Ru]",Nb1 Al1 Ru2,crystal_system=<CrystalSystem.cubic: 'Cubic'> symbol='Fm-3m' number=225 point_group='m-3m' symprec=0.1 version='1.16.2',cubic,9.090482039829512,58.82415663198577,230.5191340013132,116.79391920307458,0.28327383872767065,True,True
2863,MnAlIr2,"[Element Al, Element Ir, Element Mn]",Mn1 Al1 Ir2,crystal_system=<CrystalSystem.cubic: 'Cubic'> symbol='Fm-3m' number=225 point_group='m-3m' symprec=0.1 version='1.16.2',cubic,14.127410693515534,54.81530630182338,230.63307859405012,103.46135521470893,0.3048783978251241,True,False
2864,AlCrRu2,"[Element Al, Element Cr, Element Ru]",Al1 Cr1 Ru2,crystal_system=<CrystalSystem.cubic: 'Cubic'> symbol='Fm-3m' number=225 point_group='m-3m' symprec=0.1 version='1.16.2',cubic,8.909116155615983,52.396535531909294,230.6797026193255,112.9910615191974,0.28946553964564775,True,False
2865,BeNbRu2,"[Element Be, Element Nb, Element Ru]",Be1 Nb1 Ru2,crystal_system=<CrystalSystem.cubic: 'Cubic'> symbol='Fm-3m' number=225 point_group='m-3m' symprec=0.1 version='1.16.2',cubic,9.220384891955057,54.75922389918376,230.69749995295058,71.34996030313233,0.35981269573087354,True,False
2866,MnVRu2,"[Element Mn, Element Ru, Element V]",Mn1 V1 Ru2,crystal_system=<CrystalSystem.cubic: 'Cubic'> symbol='Fm-3m' number=225 point_group='m-3m' symprec=0.1 version='1.16.2',cubic,9.484178560464239,53.92965605698385,230.7890191940483,93.98745097607183,0.3207154979977197,True,False
2867,CrPt3,"[Element Cr, Element Pt]",Cr1 Pt3,crystal_system=<CrystalSystem.cubic: 'Cubic'> symbol='Pm-3m' number=221 point_group='m-3m' symprec=0.1 version='1.16.2',cubic,17.894383631706567,59.13449644008253,230.81331229687447,97.27347143128921,0.31523650781492607,True,True
2868,MnV2Cr,"[Element Cr, Element Mn, Element V]",Mn1 V2 Cr1,crystal_system=<CrystalSystem.cubic: 'Cubic'> symbol='Fm-3m' number=225 point_group='m-3m' symprec=0.1 version='1.16.2',cubic,6.796904552629198,51.01572699211236,231.0271868407126,98.65958615486812,0.31308363237981995,True,False
2869,TaTiRu2,"[Element Ru, Element Ta, Element Ti]",Ta1 Ti1 Ru2,crystal_system=<CrystalSystem.cubic: 'Cubic'> symbol='Fm-3m' number=225 point_group='m-3m' symprec=0.1 version='1.16.2',cubic,11.817735586939262,60.554529158090304,231.1248120908258,79.3813515136649,0.34591247435153455,True,False
2870,Ti2OsRu,"[Element Os, Element Ru, Element Ti]",Ti2 Os1 Ru1,crystal_system=<CrystalSystem.cubic: 'Cubic'> symbol='Fm-3m' number=225 point_group='m-3m' symprec=0.1 version='1.16.2',cubic,11.023991015550713,58.29876640827055,231.14615226391896,122.08942003938837,0.2754409931752702,True,False
2871,V2CrFe,"[Element Cr, Element Fe, Element V]",V2 Cr1 Fe1,crystal_system=<CrystalSystem.cubic: 'Cubic'> symbol='Fm-3m' number=225 point_group='m-3m' symprec=0.1 version='1.16.2',cubic,7.387625074698746,47.14032692999465,231.8443200741503,106.9684349483891,0.30005934769941955,True,False
2872,Al2O3,"[Element Al, Element O]",Al2 O3,crystal_system=<CrystalSystem.trig: 'Trigonal'> symbol='R-3c' number=167 point_group='-3m' symprec=0.1 version='1.16.2',trig,3.8734991191690074,87.42001939959368,231.87698875170878,146.84860864979063,0.23854213260951027,False,True
2873,Ta2VRu,"[Element Ru, Element Ta, Element V]",Ta2 V1 Ru1,crystal_system=<CrystalSystem.cubic: 'Cubic'> symbol='Fm-3m' number=225 point_group='m-3m' symprec=0.1 version='1.16.2',cubic,13.642182439894489,62.55326708898371,232.17458235712274,84.46016723507157,0.3377812288680545,True,False
2874,Mn2Nb,"[Element Mn, Element Nb]",Mn2 Nb1,crystal_system=<CrystalSystem.hex_: 'Hexagonal'> symbol='P6_3/mmc' number=194 point_group='6/mmm' symprec=0.1 version='1.16.2',hex_,7.568131069385818,177.97166056954623,232.70201395064328,74.60425503300056,0.3551767939412284,True,True
2875,MnFe2Si,"[Element Fe, Element Mn, Element Si]",Mn1 Fe2 Si1,crystal_system=<CrystalSystem.cubic: 'Cubic'> symbol='Fm-3m' number=225 point_group='m-3m' symprec=0.1 version='1.16.2',cubic,7.5786133332904955,42.663404774642764,232.86794441409094,97.08561710018566,0.31697831284856026,True,True
2876,HfPt3,"[Element Hf, Element Pt]",Hf1 Pt3,crystal_system=<CrystalSystem.hex_: 'Hexagonal'> symbol='P6_3/mmc' number=194 point_group='6/mmm' symprec=0.1 version='1.16.2',hex_,19.741751258770126,256.9627002548354,232.9231405295177,105.81627883214375,0.3027252806441591,True,True
2877,VO2,"[Element O, Element V]",V1 O2,crystal_system=<CrystalSystem.tet: 'Tetragonal'> symbol='P4_2/mnm' number=136 point_group='4/mmm' symprec=0.1 version='1.16.2',tet,4.453708752294829,61.847604325073625,233.05747421387917,118.7103029314201,0.28228485719347257,True,True
2878,TiVTc2,"[Element Tc, Element Ti, Element V]",Ti1 V1 Tc2,crystal_system=<CrystalSystem.cubic: 'Cubic'> symbol='Fm-3m' number=225 point_group='m-3m' symprec=0.1 version='1.16.2',cubic,8.624257570069174,56.76326656971813,233.21686853971522,94.21629404394248,0.3219796780469234,True,False
2879,RhO2,"[Element O, Element Rh]",Rh1 O2,crystal_system=<CrystalSystem.tet: 'Tetragonal'> symbol='P4_2/mnm' number=136 point_group='4/mmm' symprec=0.1 version='1.16.2',tet,7.2007411722894705,62.21966740434897,233.62425553539512,94.39816543290203,0.32195093213542275,True,True
2880,ScRu3C,"[Element C, Element Ru, Element Sc]",Sc1 Ru3 C1,crystal_system=<CrystalSystem.cubic: 'Cubic'> symbol='Pm-3m' number=221 point_group='m-3m' symprec=0.1 version='1.16.2',cubic,8.928269046612304,66.98805020090266,233.70181071319854,140.03634247608932,0.2502745434203322,True,True
2881,TiPt3,"[Element Pt, Element Ti]",Ti1 Pt3,crystal_system=<CrystalSystem.trig: 'Trigonal'> symbol='P-3m1' number=164 point_group='-3m' symprec=0.1 version='1.16.2',trig,17.39106919534261,423.1615520866254,234.09992719893842,107.02405521646568,0.3016417217404461,True,False
2882,Ni4W,"[Element Ni, Element W]",Ni4 W1,crystal_system=<CrystalSystem.tet: 'Tetragonal'> symbol='I4/m' number=87 point_group='4/m' symprec=0.1 version='1.16.2',tet,12.22983837043788,56.83838294137466,234.14774906549843,97.80102095917732,0.3166790600364188,True,True
2883,Si3N4,"[Element N, Element Si]",Si3 N4,crystal_system=<CrystalSystem.hex_: 'Hexagonal'> symbol='P6_3/m' number=176 point_group='6/m' symprec=0.1 version='1.16.2',hex_,3.2020796398588742,145.49663109055865,234.448028275992,120.48481722724418,0.2806252907733597,False,True
2884,ScTaOs2,"[Element Os, Element Sc, Element Ta]",Sc1 Ta1 Os2,crystal_system=<CrystalSystem.cubic: 'Cubic'> symbol='Fm-3m' number=225 point_group='m-3m' symprec=0.1 version='1.16.2',cubic,15.593447203276257,64.57140310682323,234.72777596668308,122.0411395000117,0.2784358652242886,True,False
2885,Al2IrOs,"[Element Al, Element Ir, Element Os]",Al2 Ir1 Os1,crystal_system=<CrystalSystem.cubic: 'Cubic'> symbol='Fm-3m' number=225 point_group='m-3m' symprec=0.1 version='1.16.2',cubic,13.504711622499926,53.660974221852626,235.09183208850112,128.1395890627973,0.26937136490818325,True,False