,Formula,Elements,Composition,Symmetry,Crystal system,Density [g/m$^3$],Volume [$\mathring{A}^3$],Bulk modulus[GPa],Shear modulus [GPa],Poisson,Metal,Experimental report
2955,Cr3Si,"[Element Cr, Element Si]",Cr3 Si1,crystal_system=<CrystalSystem.cubic: 'Cubic'> symbol='Pm-3n' number=223 point_group='m-3m' symprec=0.1 version='1.16.2',cubic,6.793236974348514,89.99001129850284,248.5819256527771,153.957852834366,0.24331905351458943,True,True
2956,Ni2B,"[Element B, Element Ni]",Ni2 B1,crystal_system=<CrystalSystem.tet: 'Tetragonal'> symbol='I4/mcm' number=140 point_group='4/mmm' symprec=0.1 version='1.16.2',tet,8.326112071976773,51.134900254022746,249.78463599448332,99.8090282025195,0.3236927968427116,True,True
2957,Fe2Re3,"[Element Fe, Element Re]",Fe2 Re3,crystal_system=<CrystalSystem.cubic: 'Cubic'> symbol='P4_132' number=213 point_group='432' symprec=0.1 version='1.16.2',cubic,16.74598481604564,265.8733098110027,250.6556683230545,100.5273408482114,0.32311787519512747,True,True
2958,CoN,"[Element Co, Element N]",Co1 N1,crystal_system=<CrystalSystem.cubic: 'Cubic'> symbol='F-43m' number=216 point_group='-43m' symprec=0.1 version='1.16.2',cubic,6.446110462050669,18.78955470500436,250.75848639875892,48.540456653499064,0.40907937325023513,True,True
2959,HfB2,"[Element B, Element Hf]",Hf1 B2,crystal_system=<CrystalSystem.hex_: 'Hexagonal'> symbol='P6/mmm' number=191 point_group='6/mmm' symprec=0.1 version='1.16.2',hex_,11.237731726114164,29.569472006817637,250.88886019843824,242.28526670658462,0.134728151874468,True,True
2960,V2CrRe,"[Element Cr, Element Re, Element V]",V2 Cr1 Re1,crystal_system=<CrystalSystem.cubic: 'Cubic'> symbol='Fm-3m' number=225 point_group='m-3m' symprec=0.1 version='1.16.2',cubic,10.785305559490919,52.36070985125525,250.9295069570333,112.2191753712572,0.3054020053369287,True,False
2961,VRh3,"[Element Rh, Element V]",V1 Rh3,crystal_system=<CrystalSystem.hex_: 'Hexagonal'> symbol='P6_3/mmc' number=194 point_group='6/mmm' symprec=0.1 version='1.16.2',hex_,11.0833450196136,107.77002043306308,251.30226496802777,127.04936924139896,0.28367362461564344,True,False
2962,ZrRe2,"[Element Re, Element Zr]",Zr1 Re2,crystal_system=<CrystalSystem.hex_: 'Hexagonal'> symbol='P6_3/mmc' number=194 point_group='6/mmm' symprec=0.1 version='1.16.2',hex_,14.708469907772033,209.37297124386197,251.42709705049614,66.01420108283813,0.3792858152194129,True,True
2963,SiMo3,"[Element Mo, Element Si]",Si1 Mo3,crystal_system=<CrystalSystem.cubic: 'Cubic'> symbol='Pm-3n' number=223 point_group='m-3m' symprec=0.1 version='1.16.2',cubic,8.97410028654948,116.90830442134573,251.63335086282706,127.46502926467497,0.2833124317482549,True,True
2964,RuO2,"[Element O, Element Ru]",Ru1 O2,crystal_system=<CrystalSystem.tet: 'Tetragonal'> symbol='P4_2/mnm' number=136 point_group='4/mmm' symprec=0.1 version='1.16.2',tet,7.0691471835481,62.515586451455455,251.9744425196513,92.53351603986931,0.33640856325577234,True,True
2965,NbBO4,"[Element B, Element Nb, Element O]",Nb1 B1 O4,crystal_system=<CrystalSystem.tet: 'Tetragonal'> symbol='I4_1/amd' number=141 point_group='4/mmm' symprec=0.1 version='1.16.2',tet,5.127383801765492,108.63133602292216,252.0416086433581,141.1262839148248,0.26406891721891507,False,True
2966,TaRu,"[Element Ru, Element Ta]",Ta1 Ru1,crystal_system=<CrystalSystem.tet: 'Tetragonal'> symbol='P4/mmm' number=123 point_group='4/mmm' symprec=0.1 version='1.16.2',tet,14.851498993135529,31.53228555825666,252.40287548844307,73.03947514378537,0.3680403935843516,True,True
2967,VRu,"[Element Ru, Element V]",V1 Ru1,crystal_system=<CrystalSystem.cubic: 'Cubic'> symbol='Pm-3m' number=221 point_group='m-3m' symprec=0.1 version='1.16.2',cubic,9.322505020050643,27.076524365453714,252.46379523552025,75.94890828669736,0.36329310696817485,True,True
2968,Tc3Pd,"[Element Pd, Element Tc]",Tc3 Pd1,crystal_system=<CrystalSystem.hex_: 'Hexagonal'> symbol='P6_3/mmc' number=194 point_group='6/mmm' symprec=0.1 version='1.16.2',hex_,11.616446466149425,114.4778749655573,252.52766235437832,146.17605749340652,0.2573865649690967,True,False
2969,TiC,"[Element C, Element Ti]",Ti1 C1,crystal_system=<CrystalSystem.cubic: 'Cubic'> symbol='Fm-3m' number=225 point_group='m-3m' symprec=0.1 version='1.16.2',cubic,4.894158001928937,20.315907256971823,252.64467183325303,175.63310758691597,0.2178031928659569,True,True
2970,Ti2ReB2,"[Element B, Element Re, Element Ti]",Ti2 Re1 B2,crystal_system=<CrystalSystem.tet: 'Tetragonal'> symbol='P4/mbm' number=127 point_group='4/mmm' symprec=0.1 version='1.16.2',tet,8.962410068879421,112.48720306262915,253.06791265872704,189.08698061853408,0.2009034620225779,True,True
2971,TiB2,"[Element B, Element Ti]",Ti1 B2,crystal_system=<CrystalSystem.hex_: 'Hexagonal'> symbol='P6/mmm' number=191 point_group='6/mmm' symprec=0.1 version='1.16.2',hex_,4.506928933888999,25.602622293713164,253.29163796064805,252.7460078646214,0.12560618326645992,True,True
2972,VSiRu2,"[Element Ru, Element Si, Element V]",V1 Si1 Ru2,crystal_system=<CrystalSystem.cubic: 'Cubic'> symbol='Fm-3m' number=225 point_group='m-3m' symprec=0.1 version='1.16.2',cubic,9.061345175152358,51.525328603418075,253.33933781994762,113.78383846875548,0.3046745296700519,True,False
2973,Rh,[Element Rh],Rh1,crystal_system=<CrystalSystem.cubic: 'Cubic'> symbol='Fm-3m' number=225 point_group='m-3m' symprec=0.1 version='1.16.2',cubic,12.39797767429029,13.782780337825384,253.4567194561315,144.84742912862228,0.259979095972161,True,True
2974,TiNbRe2,"[Element Nb, Element Re, Element Ti]",Ti1 Nb1 Re2,crystal_system=<CrystalSystem.cubic: 'Cubic'> symbol='Fm-3m' number=225 point_group='m-3m' symprec=0.1 version='1.16.2',cubic,13.493968500342948,63.151747608899605,253.88074157621804,114.72369967831548,0.3036373337610973,True,False
2975,VTc,"[Element Tc, Element V]",V1 Tc1,crystal_system=<CrystalSystem.cubic: 'Cubic'> symbol='Pm-3m' number=221 point_group='m-3m' symprec=0.1 version='1.16.2',cubic,9.077096237629432,27.246949124844207,253.94623238588537,125.12223226187307,0.2883972763990419,True,True
2976,TaTc,"[Element Ta, Element Tc]",Ta1 Tc1,crystal_system=<CrystalSystem.cubic: 'Cubic'> symbol='Pm-3m' number=221 point_group='m-3m' symprec=0.1 version='1.16.2',cubic,14.473060843288753,32.00455365321284,254.64137033770635,130.4217990824597,0.28125611531808503,True,True
2977,V2TcRu,"[Element Ru, Element Tc, Element V]",V2 Tc1 Ru1,crystal_system=<CrystalSystem.cubic: 'Cubic'> symbol='Fm-3m' number=225 point_group='m-3m' symprec=0.1 version='1.16.2',cubic,9.256192655619193,53.99025628610788,255.0029390973355,112.16856833613215,0.3081883376602169,True,False
2978,AlRe2,"[Element Al, Element Re]",Al1 Re2,crystal_system=<CrystalSystem.tet: 'Tetragonal'> symbol='I4/mmm' number=139 point_group='4/mmm' symprec=0.1 version='1.16.2',tet,15.507390075763249,42.7674735484724,255.09638868981148,139.0885868011424,0.26930781463885645,True,True
2979,TiVRe2,"[Element Re, Element Ti, Element V]",Ti1 V1 Re2,crystal_system=<CrystalSystem.cubic: 'Cubic'> symbol='Fm-3m' number=225 point_group='m-3m' symprec=0.1 version='1.16.2',cubic,13.579383325467605,57.6228943212319,255.21536499709245,115.39903109550035,0.3035304418377756,True,False
2980,V3B2,"[Element B, Element V]",V3 B2,crystal_system=<CrystalSystem.tet: 'Tetragonal'> symbol='P4/mbm' number=127 point_group='4/mmm' symprec=0.1 version='1.16.2',tet,5.9076915523350255,98.06714711337368,255.93277598709903,199.49262046513962,0.19064227140292858,True,True
2981,Ta2C,"[Element C, Element Ta]",Ta2 C1,crystal_system=<CrystalSystem.trig: 'Trigonal'> symbol='P-3m1' number=164 point_group='-3m' symprec=0.1 version='1.16.2',trig,14.959978675522288,41.50315301585372,255.96640598636782,138.28981774728186,0.2710911096389233,True,True
2982,TcO2,"[Element O, Element Tc]",Tc1 O2,crystal_system=<CrystalSystem.mono: 'Monoclinic'> symbol='P2_1/c' number=14 point_group='2/m' symprec=0.1 version='1.16.2',mono,6.739462012444188,128.1218504459418,256.00215507563576,110.54472685724593,0.3112607531810328,True,True
2983,VSiTc2,"[Element Si, Element Tc, Element V]",V1 Si1 Tc2,crystal_system=<CrystalSystem.cubic: 'Cubic'> symbol='Fm-3m' number=225 point_group='m-3m' symprec=0.1 version='1.16.2',cubic,8.652478974937495,52.78176106438875,256.71501916896773,102.08018977758778,0.3244486901255234,True,False
2984,ZrRu3C,"[Element C, Element Ru, Element Zr]",Zr1 Ru3 C1,crystal_system=<CrystalSystem.cubic: 'Cubic'> symbol='Pm-3m' number=221 point_group='m-3m' symprec=0.1 version='1.16.2',cubic,9.97017072361262,67.69365555236604,256.8742513022787,157.04734709351322,0.24606164369613429,True,True
2985,CoMoP,"[Element Co, Element Mo, Element P]",Co1 Mo1 P1,crystal_system=<CrystalSystem.ortho: 'Orthorhombic'> symbol='Pnma' number=62 point_group='mmm' symprec=0.1 version='1.16.2',ortho,8.619276248366491,143.21672660890374,257.8746636466186,122.12319977182935,0.2954949772019929,True,True
2986,MnAlOs2,"[Element Al, Element Mn, Element Os]",Mn1 Al1 Os2,crystal_system=<CrystalSystem.cubic: 'Cubic'> symbol='Fm-3m' number=225 point_group='m-3m' symprec=0.1 version='1.16.2',cubic,14.436222176918587,53.18561551329126,257.9828883644425,144.02663208712772,0.2646560329082336,True,False
2987,TaSiIr,"[Element Ir, Element Si, Element Ta]",Ta1 Si1 Ir1,crystal_system=<CrystalSystem.ortho: 'Orthorhombic'> symbol='Pnma' number=62 point_group='mmm' symprec=0.1 version='1.16.2',ortho,15.087325696576752,176.64944599937257,258.59935337340903,124.85849275591798,0.2920542091924,True,True
2988,NbIr,"[Element Ir, Element Nb]",Nb1 Ir1,crystal_system=<CrystalSystem.tet: 'Tetragonal'> symbol='P4/mmm' number=123 point_group='4/mmm' symprec=0.1 version='1.16.2',tet,14.752158330153208,64.18837172094261,258.701875615909,105.23108242121418,0.3209008861519529,True,True
2989,Cr,[Element Cr],Cr1,crystal_system=<CrystalSystem.cubic: 'Cubic'> symbol='Im-3m' number=229 point_group='m-3m' symprec=0.1 version='1.16.2',cubic,6.5987767847843095,26.168957725598368,259.2768408307951,128.56794681281045,0.2872327384146541,True,True
2990,Fe2W,"[Element Fe, Element W]",Fe2 W1,crystal_system=<CrystalSystem.hex_: 'Hexagonal'> symbol='P6_3/mmc' number=194 point_group='6/mmm' symprec=0.1 version='1.16.2',hex_,13.193172482098324,148.7857787103675,259.4115764374602,136.69415285825437,0.27589380630226823,True,True
2991,Mn2AlRe,"[Element Al, Element Mn, Element Re]",Mn2 Al1 Re1,crystal_system=<CrystalSystem.cubic: 'Cubic'> symbol='Fm-3m' number=225 point_group='m-3m' symprec=0.1 version='1.16.2',cubic,11.009652128782282,48.72646570044304,259.46105667271905,129.6208433151996,0.28586959736111034,True,False
2992,TaRh3,"[Element Rh, Element Ta]",Ta1 Rh3,crystal_system=<CrystalSystem.cubic: 'Cubic'> symbol='Pm-3m' number=221 point_group='m-3m' symprec=0.1 version='1.16.2',cubic,14.030966944153063,57.9508764968834,260.2894753817907,152.64869179764534,0.25472004391199105,True,True
2993,Co3Mo,"[Element Co, Element Mo]",Co3 Mo1,crystal_system=<CrystalSystem.hex_: 'Hexagonal'> symbol='P6_3/mmc' number=194 point_group='6/mmm' symprec=0.1 version='1.16.2',hex_,9.96299728602397,90.91535868148617,260.46568077541764,133.2104232789299,0.2815285328048578,True,True
2994,HfRe2,"[Element Hf, Element Re]",Hf1 Re2,crystal_system=<CrystalSystem.hex_: 'Hexagonal'> symbol='P6_3/mmc' number=194 point_group='6/mmm' symprec=0.1 version='1.16.2',hex_,17.781944324692713,205.781234547199,262.21220742318997,74.62095523166076,0.3700372156118055,True,True
2995,NbAlOs2,"[Element Al, Element Nb, Element Os]",Nb1 Al1 Os2,crystal_system=<CrystalSystem.cubic: 'Cubic'> symbol='Fm-3m' number=225 point_group='m-3m' symprec=0.1 version='1.16.2',cubic,13.860108354568169,59.945221528766524,262.2126534525662,129.71593305461928,0.2876651139033471,True,False
2996,Mo,[Element Mo],Mo1,crystal_system=<CrystalSystem.cubic: 'Cubic'> symbol='Im-3m' number=229 point_group='m-3m' symprec=0.1 version='1.16.2',cubic,10.024908649125194,15.89162790660502,262.389752861169,124.41655167633161,0.2952745365120352,True,True
2997,TaTiRe2,"[Element Re, Element Ta, Element Ti]",Ta1 Ti1 Re2,crystal_system=<CrystalSystem.cubic: 'Cubic'> symbol='Fm-3m' number=225 point_group='m-3m' symprec=0.1 version='1.16.2',cubic,15.911486771348914,62.74486209584586,263.12030605028536,117.43893732913105,0.305736177692207,True,False
2998,TiTc2W,"[Element Tc, Element Ti, Element W]",Ti1 Tc2 W1,crystal_system=<CrystalSystem.cubic: 'Cubic'> symbol='Fm-3m' number=225 point_group='m-3m' symprec=0.1 version='1.16.2',cubic,11.869333290143155,59.836906184788766,263.4211122633923,128.04820878978475,0.29084188355339313,True,False
2999,NbB,"[Element B, Element Nb]",Nb1 B1,crystal_system=<CrystalSystem.ortho: 'Orthorhombic'> symbol='Cmcm' number=63 point_group='mmm' symprec=0.1 version='1.16.2',ortho,7.458852040352272,46.18050081799542,263.82091693741273,197.4867324698601,0.2004598276125593,True,True
3000,TaFeP,"[Element Fe, Element P, Element Ta]",Ta1 Fe1 P1,crystal_system=<CrystalSystem.ortho: 'Orthorhombic'> symbol='Pnma' number=62 point_group='mmm' symprec=0.1 version='1.16.2',ortho,11.914834193030071,149.27172718304368,263.94194310560033,142.771560122871,0.27085604710205513,True,True
3001,MnV2Os,"[Element Mn, Element Os, Element V]",Mn1 V2 Os1,crystal_system=<CrystalSystem.cubic: 'Cubic'> symbol='Fm-3m' number=225 point_group='m-3m' symprec=0.1 version='1.16.2',cubic,11.313399648427943,50.93887215474911,264.6128867603709,114.85022170302729,0.3104132932953088,True,False
3002,ZrOs2,"[Element Os, Element Zr]",Zr1 Os2,crystal_system=<CrystalSystem.hex_: 'Hexagonal'> symbol='P6_3/mmc' number=194 point_group='6/mmm' symprec=0.1 version='1.16.2',hex_,15.525720743186238,201.7940994936157,264.80771647924234,94.01192487792554,0.34127384049362064,True,True
3003,V2CrOs,"[Element Cr, Element Os, Element V]",V2 Cr1 Os1,crystal_system=<CrystalSystem.cubic: 'Cubic'> symbol='Fm-3m' number=225 point_group='m-3m' symprec=0.1 version='1.16.2',cubic,10.767217051527641,53.06910792157714,265.1665691368661,124.53591849213463,0.296960169281585,True,False
3004,HfN,"[Element Hf, Element N]",Hf1 N1,crystal_system=<CrystalSystem.cubic: 'Cubic'> symbol='Fm-3m' number=225 point_group='m-3m' symprec=0.1 version='1.16.2',cubic,13.922136516412124,22.95971528254751,266.00759294575096,156.15417728937234,0.25452009773439277,True,True
3005,MoRh,"[Element Mo, Element Rh]",Mo1 Rh1,crystal_system=<CrystalSystem.ortho: 'Orthorhombic'> symbol='Pmma' number=51 point_group='mmm' symprec=0.1 version='1.16.2',ortho,11.360883863522158,58.12764656943564,266.3002545271557,133.77711914307667,0.28484996542597396,True,True
3006,Cr3PtN,"[Element Cr, Element N, Element Pt]",Cr3 Pt1 N1,crystal_system=<CrystalSystem.cubic: 'Cubic'> symbol='Pm-3m' number=221 point_group='m-3m' symprec=0.1 version='1.16.2',cubic,10.115305395485436,59.93174878989092,266.7819312319873,158.3496549018671,0.25224198393744357,True,True
3007,FeN,"[Element Fe, Element N]",Fe1 N1,crystal_system=<CrystalSystem.cubic: 'Cubic'> symbol='F-43m' number=216 point_group='-43m' symprec=0.1 version='1.16.2',cubic,6.269991351870007,18.499463589184867,266.9981173031348,60.38453236500746,0.3948467391050465,True,True
3008,ZrIr3,"[Element Ir, Element Zr]",Zr1 Ir3,crystal_system=<CrystalSystem.cubic: 'Cubic'> symbol='Pm-3m' number=221 point_group='m-3m' symprec=0.1 version='1.16.2',cubic,17.863338695410263,62.08428043691663,267.24895853883095,152.99984219488664,0.25962235951077645,True,True
3009,V2N,"[Element N, Element V]",V2 N1,crystal_system=<CrystalSystem.trig: 'Trigonal'> symbol='P-31m' number=162 point_group='-3m' symprec=0.1 version='1.16.2',trig,6.16616830184534,93.62672157795123,267.3453734787041,141.7757282100801,0.2746758608506921,True,True
3010,TaTiOs2,"[Element Os, Element Ta, Element Ti]",Ta1 Ti1 Os2,crystal_system=<CrystalSystem.cubic: 'Cubic'> symbol='Fm-3m' number=225 point_group='m-3m' symprec=0.1 version='1.16.2',cubic,16.46189920357815,61.45856732728134,268.2819441829859,100.62862535992545,0.3332996179831752,True,False
3011,MoRh3,"[Element Mo, Element Rh]",Mo1 Rh3,crystal_system=<CrystalSystem.hex_: 'Hexagonal'> symbol='P6_3/mmc' number=194 point_group='6/mmm' symprec=0.1 version='1.16.2',hex_,11.949571843809524,112.46393353444299,268.463354112688,126.60569726674194,0.2962345386843393,True,True
3012,HfNbB4,"[Element B, Element Hf, Element Nb]",Hf1 Nb1 B4,crystal_system=<CrystalSystem.ortho: 'Orthorhombic'> symbol='Immm' number=71 point_group='mmm' symprec=0.1 version='1.16.2',ortho,9.084617660533217,57.5117921791772,269.49524652564446,219.21327221729638,0.1800425955923929,True,False
3013,IrO2,"[Element Ir, Element O]",Ir1 O2,crystal_system=<CrystalSystem.tet: 'Tetragonal'> symbol='P4_2/mnm' number=136 point_group='4/mmm' symprec=0.1 version='1.16.2',tet,11.548302349446649,64.48031649722306,270.0238509633652,103.52376894878469,0.33002796784180244,True,True
3014,BeRu2W,"[Element Be, Element Ru, Element W]",Be1 Ru2 W1,crystal_system=<CrystalSystem.cubic: 'Cubic'> symbol='Fm-3m' number=225 point_group='m-3m' symprec=0.1 version='1.16.2',cubic,12.426428709208654,52.782659005360074,270.2477152531583,118.64238480791118,0.30851479675692745,True,False
3015,NbRu3,"[Element Nb, Element Ru]",Nb1 Ru3,crystal_system=<CrystalSystem.cubic: 'Cubic'> symbol='Pm-3m' number=221 point_group='m-3m' symprec=0.1 version='1.16.2',cubic,11.216609700880136,58.64220485968748,270.5559607087714,128.47826665499042,0.2950133601756473,True,True
3016,MoPt2,"[Element Mo, Element Pt]",Mo1 Pt2,crystal_system=<CrystalSystem.ortho: 'Orthorhombic'> symbol='Immm' number=71 point_group='mmm' symprec=0.1 version='1.16.2',ortho,17.766045466985325,45.435059033639,271.5315620821225,136.73437499552134,0.28440523805134554,True,True
3017,TaAlOs2,"[Element Al, Element Os, Element Ta]",Ta1 Al1 Os2,crystal_system=<CrystalSystem.cubic: 'Cubic'> symbol='Fm-3m' number=225 point_group='m-3m' symprec=0.1 version='1.16.2',cubic,16.4421172584612,59.423223943775774,271.9001017375567,143.38952460457924,0.2757412494428679,True,False
3018,Ta2OsW,"[Element Os, Element Ta, Element W]",Ta2 Os1 W1,crystal_system=<CrystalSystem.cubic: 'Cubic'> symbol='Fm-3m' number=225 point_group='m-3m' symprec=0.1 version='1.16.2',cubic,18.64887539694631,65.53209617991625,272.3176985889336,132.62279032649553,0.2905020668667255,True,False
3019,AlVOs2,"[Element Al, Element Os, Element V]",Al1 V1 Os2,crystal_system=<CrystalSystem.cubic: 'Cubic'> symbol='Fm-3m' number=225 point_group='m-3m' symprec=0.1 version='1.16.2',cubic,14.072812583990622,54.087478144064995,272.5805307097345,139.92024720085968,0.2808408331816664,True,False
3020,VB,"[Element B, Element V]",V1 B1,crystal_system=<CrystalSystem.ortho: 'Orthorhombic'> symbol='Cmcm' number=63 point_group='mmm' symprec=0.1 version='1.16.2',ortho,5.698964504864887,35.98634054403453,272.63524244438105,232.15905360718597,0.16836466975024855,True,True
3021,VIr,"[Element Ir, Element V]",V1 Ir1,crystal_system=<CrystalSystem.ortho: 'Orthorhombic'> symbol='Cmmm' number=65 point_group='mmm' symprec=0.1 version='1.16.2',ortho,14.809033043533958,54.53079717478992,272.81597767377593,115.66754666178794,0.314261380133065,True,True
3022,TiReTc2,"[Element Re, Element Tc, Element Ti]",Ti1 Re1 Tc2,crystal_system=<CrystalSystem.cubic: 'Cubic'> symbol='Fm-3m' number=225 point_group='m-3m' symprec=0.1 version='1.16.2',cubic,12.166195642983205,58.69991733535976,273.3638862175095,122.7975756641919,0.3046468696508465,True,False
3023,Ni2Mo3N,"[Element Mo, Element N, Element Ni]",Ni2 Mo3 N1,crystal_system=<CrystalSystem.cubic: 'Cubic'> symbol='P4_132' number=213 point_group='432' symprec=0.1 version='1.16.2',cubic,9.624770689411566,289.3036796240506,273.4835729877831,140.9673459088781,0.28006340156358617,True,True
3024,TaIr,"[Element Ir, Element Ta]",Ta1 Ir1,crystal_system=<CrystalSystem.ortho: 'Orthorhombic'> symbol='Pmma' number=51 point_group='mmm' symprec=0.1 version='1.16.2',ortho,19.473165747304925,190.92577023092227,273.6917625902487,96.2328367397883,0.3426382027449003,True,True