,Formula,Elements,Composition,Symmetry,Crystal system,Density [g/m$^3$],Volume [$\mathring{A}^3$],Bulk modulus[GPa],Shear modulus [GPa],Poisson,Metal,Experimental report
137,Li2AgSb,"[Element Ag, Element Li, Element Sb]",Li2 Ag1 Sb1,crystal_system=<CrystalSystem.cubic: 'Cubic'> symbol='F-43m' number=216 point_group='-43m' symprec=0.1 version='1.16.2',cubic,5.608612306475472,72.09594425856892,46.937612885547075,21.221290355816816,0.30354795790411654,False,True
138,SrS,"[Element S, Element Sr]",Sr1 S1,crystal_system=<CrystalSystem.cubic: 'Cubic'> symbol='Fm-3m' number=225 point_group='m-3m' symprec=0.1 version='1.16.2',cubic,3.593405710633063,55.30731406084619,46.975130067774,32.44833084597636,0.21926255043505333,False,True
139,CaGa2,"[Element Ca, Element Ga]",Ca1 Ga2,crystal_system=<CrystalSystem.hex_: 'Hexagonal'> symbol='P6_3/mmc' number=194 point_group='6/mmm' symprec=0.1 version='1.16.2',hex_,4.720195360363828,126.31113444818122,46.98052303436718,41.059355180635755,0.16160043959481737,True,True
140,PbSe,"[Element Pb, Element Se]",Pb1 Se1,crystal_system=<CrystalSystem.cubic: 'Cubic'> symbol='Fm-3m' number=225 point_group='m-3m' symprec=0.1 version='1.16.2',cubic,8.046470006595401,59.05444982815671,47.1361189893195,27.377365812688012,0.2566971421368302,False,True
141,CdSnAs2,"[Element As, Element Cd, Element Sn]",Cd1 Sn1 As2,crystal_system=<CrystalSystem.tet: 'Tetragonal'> symbol='I-42d' number=122 point_group='-42m' symprec=0.1 version='1.16.2',tet,5.5626907052611525,227.44602229194646,47.32665628054376,23.028996735279406,0.2906568592673325,False,True
142,Li2Sn2Au,"[Element Au, Element Li, Element Sn]",Li2 Sn2 Au1,crystal_system=<CrystalSystem.tet: 'Tetragonal'> symbol='I4_1/amd' number=141 point_group='4/mmm' symprec=0.1 version='1.16.2',tet,7.169227143852894,207.6562664893719,47.44943718672828,21.23446583913001,0.3052869668489415,True,True
143,KCu4S3,"[Element Cu, Element K, Element S]",K1 Cu4 S3,crystal_system=<CrystalSystem.tet: 'Tetragonal'> symbol='P4/mmm' number=123 point_group='4/mmm' symprec=0.1 version='1.16.2',tet,4.682005931557535,138.13358668444494,47.52304189049362,18.752254288379596,0.3256376095991231,True,True
144,Mg3Si4(HO6)2,"[Element H, Element Mg, Element O, Element Si]",Mg3 Si4 H2 O12,crystal_system=<CrystalSystem.tri: 'Triclinic'> symbol='P-1' number=2 point_group='-1' symprec=0.1 version='1.16.2',tri,2.6942519198007524,233.75151879160157,47.52965120436844,24.651713556825563,0.2788960606234251,False,True
145,Sr(MgAs)2,"[Element As, Element Mg, Element Sr]",Sr1 Mg2 As2,crystal_system=<CrystalSystem.trig: 'Trigonal'> symbol='P-3m1' number=164 point_group='-3m' symprec=0.1 version='1.16.2',trig,3.792269228603565,125.264240451145,47.53398698310377,35.11069651886505,0.20364494274850026,False,True
146,TePt,"[Element Pt, Element Te]",Te1 Pt1,crystal_system=<CrystalSystem.trig: 'Trigonal'> symbol='R-3m' number=166 point_group='-3m' symprec=0.1 version='1.16.2',trig,11.31968256685772,94.67215798711175,47.54116326071933,20.981889597689044,0.3076295870231612,True,True
147,Cs(CoS)2,"[Element Co, Element Cs, Element S]",Cs1 Co2 S2,crystal_system=<CrystalSystem.tet: 'Tetragonal'> symbol='I4/mmm' number=139 point_group='4/mmm' symprec=0.1 version='1.16.2',tet,5.004642034007199,104.48435813511264,47.557959499621795,33.70476751784544,0.21336013503597162,True,True
148,NaF,"[Element F, Element Na]",Na1 F1,crystal_system=<CrystalSystem.cubic: 'Cubic'> symbol='Fm-3m' number=225 point_group='m-3m' symprec=0.1 version='1.16.2',cubic,2.918620456906104,23.889026260060266,47.57678297619863,30.00933670547132,0.2394113292902193,False,True
149,SrCuSb,"[Element Cu, Element Sb, Element Sr]",Sr1 Cu1 Sb1,crystal_system=<CrystalSystem.hex_: 'Hexagonal'> symbol='P6_3/mmc' number=194 point_group='6/mmm' symprec=0.1 version='1.16.2',hex_,5.770652860582183,157.0721012821933,47.59843011083906,33.66293425341063,0.21384501063294292,True,True
150,BaCN2,"[Element Ba, Element C, Element N]",Ba1 C1 N2,crystal_system=<CrystalSystem.trig: 'Trigonal'> symbol='R-3m' number=166 point_group='-3m' symprec=0.1 version='1.16.2',trig,3.5462512239391497,83.04499919984701,47.63927869229008,10.868642973554868,0.39398961104385044,False,False
151,GaCuTe2,"[Element Cu, Element Ga, Element Te]",Ga1 Cu1 Te2,crystal_system=<CrystalSystem.tet: 'Tetragonal'> symbol='I-42d' number=122 point_group='-42m' symprec=0.1 version='1.16.2',tet,5.910200069415345,218.2897171285937,47.67849001915686,24.41096989408875,0.2813243754138582,False,True
152,BaZn5,"[Element Ba, Element Zn]",Ba1 Zn5,crystal_system=<CrystalSystem.ortho: 'Orthorhombic'> symbol='Cmcm' number=63 point_group='mmm' symprec=0.1 version='1.16.2',ortho,6.495455758264485,237.42994368149056,47.73448116767973,27.031510248829218,0.26181586401847395,True,True
153,ZnSb,"[Element Sb, Element Zn]",Zn1 Sb1,crystal_system=<CrystalSystem.ortho: 'Orthorhombic'> symbol='Pbca' number=61 point_group='mmm' symprec=0.1 version='1.16.2',ortho,6.346784757848934,391.75922728067167,47.78765873726188,28.147981817320392,0.2538234687091226,False,True
154,Ag2SO4,"[Element Ag, Element O, Element S]",Ag2 S1 O4,crystal_system=<CrystalSystem.ortho: 'Orthorhombic'> symbol='Fddd' number=70 point_group='mmm' symprec=0.1 version='1.16.2',ortho,5.427367859487863,190.79392951841285,47.791836597754575,10.677014509998095,0.39603856322750275,False,True
155,SrIn4Pd,"[Element In, Element Pd, Element Sr]",Sr1 In4 Pd1,crystal_system=<CrystalSystem.ortho: 'Orthorhombic'> symbol='Cmcm' number=63 point_group='mmm' symprec=0.1 version='1.16.2',ortho,7.302085260198504,297.1343280779737,47.885102536018096,23.944291722420516,0.2857009340886888,True,True
156,Na2MnN2,"[Element Mn, Element N, Element Na]",Na2 Mn1 N2,crystal_system=<CrystalSystem.ortho: 'Orthorhombic'> symbol='Pnma' number=62 point_group='mmm' symprec=0.1 version='1.16.2',ortho,2.839273439807993,301.61932569766236,47.952666763965745,20.70810851508142,0.3112481178669949,False,False
157,Li2Pd,"[Element Li, Element Pd]",Li2 Pd1,crystal_system=<CrystalSystem.hex_: 'Hexagonal'> symbol='P6/mmm' number=191 point_group='6/mmm' symprec=0.1 version='1.16.2',hex_,4.867689604273123,41.039217170862244,47.960537386914666,21.4148529944843,0.30566868467779557,True,True
158,Ba3OsN3,"[Element Ba, Element N, Element Os]",Ba3 Os1 N3,crystal_system=<CrystalSystem.hex_: 'Hexagonal'> symbol='P6_3/m' number=176 point_group='6/m' symprec=0.1 version='1.16.2',hex_,6.438401608955721,332.30946885346685,48.08357161763135,25.948283297443076,0.27131225583487656,False,False
159,AcTe3,"[Element Ac, Element Te]",Ac1 Te3,crystal_system=<CrystalSystem.tet: 'Tetragonal'> symbol='I4/mmm' number=139 point_group='4/mmm' symprec=0.1 version='1.16.2',tet,7.79355066595012,129.9275216412843,48.12089254940885,20.567849846393674,0.31294078641325607,True,False
160,Mn(AsO2)2,"[Element As, Element Mn, Element O]",Mn1 As2 O4,crystal_system=<CrystalSystem.tet: 'Tetragonal'> symbol='P4_2/mbc' number=135 point_group='4/mmm' symprec=0.1 version='1.16.2',tet,4.217292372212471,423.3216319920256,48.16798162612662,19.277936505482174,0.3234425901455511,False,False
161,CaAg2,"[Element Ag, Element Ca]",Ca1 Ag2,crystal_system=<CrystalSystem.ortho: 'Orthorhombic'> symbol='Imma' number=74 point_group='mmm' symprec=0.1 version='1.16.2',ortho,6.138487211918691,138.40211450601478,48.25808095363985,15.430928764075682,0.3555203124135462,True,True
162,K(FeAs)2,"[Element As, Element Fe, Element K]",K1 Fe2 As2,crystal_system=<CrystalSystem.tet: 'Tetragonal'> symbol='I4/mmm' number=139 point_group='4/mmm' symprec=0.1 version='1.16.2',tet,5.131160048113608,97.28995894097766,48.35787395294355,23.43964967972293,0.29135486363434365,True,True
163,MgSc,"[Element Mg, Element Sc]",Mg1 Sc1,crystal_system=<CrystalSystem.cubic: 'Cubic'> symbol='Pm-3m' number=221 point_group='m-3m' symprec=0.1 version='1.16.2',cubic,2.472377448359312,46.51816017844139,48.41873621914224,27.30341318519615,0.2626610481613947,True,True
164,Li2AlAg,"[Element Ag, Element Al, Element Li]",Li2 Al1 Ag1,crystal_system=<CrystalSystem.cubic: 'Cubic'> symbol='F-43m' number=216 point_group='-43m' symprec=0.1 version='1.16.2',cubic,4.064221003825025,60.76806899924974,48.54353243053575,21.058503862760524,0.3104989733858608,True,True
165,Mg(SbO2)2,"[Element Mg, Element O, Element Sb]",Mg1 Sb2 O4,crystal_system=<CrystalSystem.tet: 'Tetragonal'> symbol='P4_2/mbc' number=135 point_group='4/mmm' symprec=0.1 version='1.16.2',tet,5.155458264365747,427.5114740346541,48.54885566329202,19.28973779628703,0.3245710261792045,False,True
166,BaAlSi,"[Element Al, Element Ba, Element Si]",Ba1 Al1 Si1,crystal_system=<CrystalSystem.hex_: 'Hexagonal'> symbol='P-6m2' number=187 point_group='-6m2' symprec=0.1 version='1.16.2',hex_,3.8043377285380893,83.97724914896438,48.63772527492205,37.46235791653943,0.19356033638553233,True,True
167,BaTiF6,"[Element Ba, Element F, Element Ti]",Ba1 Ti1 F6,crystal_system=<CrystalSystem.trig: 'Trigonal'> symbol='R-3m' number=166 point_group='-3m' symprec=0.1 version='1.16.2',trig,4.327967542123751,114.79000509228533,48.68661772754735,21.609735371991835,0.3066757165839547,False,True
168,CeIn3,"[Element Ce, Element In]",Ce1 In3,crystal_system=<CrystalSystem.cubic: 'Cubic'> symbol='Pm-3m' number=221 point_group='m-3m' symprec=0.1 version='1.16.2',cubic,7.775449563030647,103.48564529672463,48.81387557784171,34.187454184213756,0.21609676019070911,True,True
169,Na2CoO3,"[Element Co, Element Na, Element O]",Na2 Co1 O3,crystal_system=<CrystalSystem.ortho: 'Orthorhombic'> symbol='Cmc2_1' number=36 point_group='2' symprec=0.1 version='1.16.2',ortho,3.0521448820607002,332.76871013439285,48.88209654397905,19.637498392161838,0.3228555655469326,True,False
170,NiTe2,"[Element Ni, Element Te]",Ni1 Te2,crystal_system=<CrystalSystem.trig: 'Trigonal'> symbol='P-3m1' number=164 point_group='-3m' symprec=0.1 version='1.16.2',trig,7.504894339130935,69.45231070478455,48.96723583325327,22.631322698034925,0.2997618280788922,True,True
171,Na2O2,"[Element Na, Element O]",Na2 O2,crystal_system=<CrystalSystem.hex_: 'Hexagonal'> symbol='P-62m' number=189 point_group='-6m2' symprec=0.1 version='1.16.2',hex_,2.6929727082185853,144.24885606779526,48.97014879190402,29.303676362269123,0.250556233175688,False,True
172,SrIn2Pd,"[Element In, Element Pd, Element Sr]",Sr1 In2 Pd1,crystal_system=<CrystalSystem.ortho: 'Orthorhombic'> symbol='Cmcm' number=63 point_group='mmm' symprec=0.1 version='1.16.2',ortho,7.095150848714632,198.31306326863344,49.10895173519827,23.57418307769465,0.2930891762171373,True,True
173,Cu2GeTe3,"[Element Cu, Element Ge, Element Te]",Cu2 Ge1 Te3,crystal_system=<CrystalSystem.ortho: 'Orthorhombic'> symbol='Imm2' number=44 point_group='mm2' symprec=0.1 version='1.16.2',ortho,6.017644051178646,160.7468197383937,49.11982593399032,22.046929963207866,0.3047866348086902,True,True
174,InAs,"[Element As, Element In]",In1 As1,crystal_system=<CrystalSystem.cubic: 'Cubic'> symbol='F-43m' number=216 point_group='-43m' symprec=0.1 version='1.16.2',cubic,5.532953267871242,56.944276054273985,49.15915091766797,25.130412110825933,0.2816112365680618,True,True
175,AlSb,"[Element Al, Element Sb]",Al1 Sb1,crystal_system=<CrystalSystem.cubic: 'Cubic'> symbol='F-43m' number=216 point_group='-43m' symprec=0.1 version='1.16.2',cubic,4.175546636123753,59.15180866014202,49.20318080636926,29.578752700723797,0.24959898439634662,False,True
176,SrZnSi,"[Element Si, Element Sr, Element Zn]",Sr1 Zn1 Si1,crystal_system=<CrystalSystem.hex_: 'Hexagonal'> symbol='P6_3/mmc' number=194 point_group='6/mmm' symprec=0.1 version='1.16.2',hex_,4.207064476399746,142.97270910147526,49.222806467712346,38.709393975179,0.18846028446042545,True,True
177,Te4Pt3,"[Element Pt, Element Te]",Te4 Pt3,crystal_system=<CrystalSystem.trig: 'Trigonal'> symbol='R-3m' number=166 point_group='-3m' symprec=0.1 version='1.16.2',trig,10.6370562450621,171.04101994788329,49.25229319890227,26.553303650572175,0.2714995490575849,True,True
178,MnTe2,"[Element Mn, Element Te]",Mn1 Te2,crystal_system=<CrystalSystem.cubic: 'Cubic'> symbol='Pa-3' number=205 point_group='m-3' symprec=0.1 version='1.16.2',cubic,6.007342182327375,342.91127365874667,49.266770894222134,24.549540268878182,0.2863397631463587,True,True
179,Li2TiF6,"[Element F, Element Li, Element Ti]",Li2 Ti1 F6,crystal_system=<CrystalSystem.tet: 'Tetragonal'> symbol='P4_2/mnm' number=136 point_group='4/mmm' symprec=0.1 version='1.16.2',tet,3.118890987174091,187.13201091238082,49.282476662377256,29.60648559999838,0.2497393717514657,False,True
180,CaZnGe,"[Element Ca, Element Ge, Element Zn]",Ca1 Zn1 Ge1,crystal_system=<CrystalSystem.hex_: 'Hexagonal'> symbol='P6_3/mmc' number=194 point_group='6/mmm' symprec=0.1 version='1.16.2',hex_,4.550185493694487,130.01089416075493,49.30119921349885,38.72883206833377,0.18872907997214997,True,True
181,Ba(MgSi)2,"[Element Ba, Element Mg, Element Si]",Ba1 Mg2 Si2,crystal_system=<CrystalSystem.tet: 'Tetragonal'> symbol='I4/mmm' number=139 point_group='4/mmm' symprec=0.1 version='1.16.2',tet,3.35936220908619,119.67444035924677,49.33033391046283,40.039334119261994,0.1805887682581341,True,True
182,LaTe2,"[Element La, Element Te]",La1 Te2,crystal_system=<CrystalSystem.tet: 'Tetragonal'> symbol='P4bm' number=100 point_group='4mm' symprec=0.1 version='1.16.2',tet,6.752279052695284,775.3560232787222,49.38039973531556,22.286458262379213,0.3038482257506722,True,False
183,MgSc2,"[Element Mg, Element Sc]",Mg1 Sc2,crystal_system=<CrystalSystem.ortho: 'Orthorhombic'> symbol='Cmcm' number=63 point_group='mmm' symprec=0.1 version='1.16.2',ortho,2.638554254048638,143.76168162845764,49.40543481079156,23.396398020974374,0.29550116902913043,True,False
184,Te2Pt,"[Element Pt, Element Te]",Te2 Pt1,crystal_system=<CrystalSystem.trig: 'Trigonal'> symbol='P-3m1' number=164 point_group='-3m' symprec=0.1 version='1.16.2',trig,9.62252563087982,77.70456549010493,49.42985011779332,27.652447601589063,0.26424803694113025,True,True
185,CePb3,"[Element Ce, Element Pb]",Ce1 Pb3,crystal_system=<CrystalSystem.cubic: 'Cubic'> symbol='Pm-3m' number=221 point_group='m-3m' symprec=0.1 version='1.16.2',cubic,10.778493414812424,117.35027586657364,49.5096551607926,17.778205955998377,0.339650276633567,True,True
186,BaPt,"[Element Ba, Element Pt]",Ba1 Pt1,crystal_system=<CrystalSystem.hex_: 'Hexagonal'> symbol='P6_3/mmc' number=194 point_group='6/mmm' symprec=0.1 version='1.16.2',hex_,8.87737696065013,124.35688021682216,49.53731917740079,19.013419150503456,0.32985792909065154,True,True
187,LiY2Al,"[Element Al, Element Li, Element Y]",Li1 Y2 Al1,crystal_system=<CrystalSystem.cubic: 'Cubic'> symbol='Fm-3m' number=225 point_group='m-3m' symprec=0.1 version='1.16.2',cubic,3.5972551520397413,97.73923729951235,49.55130778409651,32.84696597595388,0.22853880140044128,True,False
188,Rb(CoS)2,"[Element Co, Element Rb, Element S]",Rb1 Co2 S2,crystal_system=<CrystalSystem.tet: 'Tetragonal'> symbol='I4/mmm' number=139 point_group='4/mmm' symprec=0.1 version='1.16.2',tet,4.567468994962604,97.23869760284192,49.556546235310826,31.819641594175117,0.2355551403834025,True,True
189,Li2CN2,"[Element C, Element Li, Element N]",Li2 C1 N2,crystal_system=<CrystalSystem.tet: 'Tetragonal'> symbol='I4/mmm' number=139 point_group='4/mmm' symprec=0.1 version='1.16.2',tet,1.555704178698644,57.538692897851924,49.621960210315194,17.024317486059832,0.3460639837739033,False,True
190,Ca(MgAs)2,"[Element As, Element Ca, Element Mg]",Ca1 Mg2 As2,crystal_system=<CrystalSystem.trig: 'Trigonal'> symbol='P-3m1' number=164 point_group='-3m' symprec=0.1 version='1.16.2',trig,3.390833919729612,116.81208386477462,49.64534780828416,35.58943714444321,0.210694937349765,False,True
191,Ga,[Element Ga],Ga1,crystal_system=<CrystalSystem.ortho: 'Orthorhombic'> symbol='Cmce' number=64 point_group='mmm' symprec=0.1 version='1.16.2',ortho,6.0377632817938025,76.70242103705301,49.66627556295542,34.555148793108664,0.21761590532942182,True,True
192,Mg17Al12,"[Element Al, Element Mg]",Mg17 Al12,crystal_system=<CrystalSystem.cubic: 'Cubic'> symbol='I-43m' number=217 point_group='-43m' symprec=0.1 version='1.16.2',cubic,2.1531023252964023,568.3690026817305,49.67016469925148,23.840229837309842,0.2931142899384151,True,True
193,HgS,"[Element Hg, Element S]",Hg1 S1,crystal_system=<CrystalSystem.cubic: 'Cubic'> symbol='F-43m' number=216 point_group='-43m' symprec=0.1 version='1.16.2',cubic,7.3758180190389355,52.378287471653465,49.693623714361124,15.421434910426377,0.35938098425127807,True,True
194,LiAl,"[Element Al, Element Li]",Li1 Al1,crystal_system=<CrystalSystem.cubic: 'Cubic'> symbol='Fd-3m' number=227 point_group='m-3m' symprec=0.1 version='1.16.2',cubic,1.7794205044145226,63.31241035359482,49.794395688917874,40.185203440232314,0.1820260751323564,True,True
195,Mg3As2,"[Element As, Element Mg]",Mg3 As2,crystal_system=<CrystalSystem.cubic: 'Cubic'> symbol='Ia-3' number=206 point_group='m-3' symprec=0.1 version='1.16.2',cubic,3.132694630713741,944.6147476461049,49.834882908661505,26.88864821298441,0.27134634354370285,False,True
196,MgH2,"[Element H, Element Mg]",Mg1 H2,crystal_system=<CrystalSystem.tet: 'Tetragonal'> symbol='P4_2/mnm' number=136 point_group='4/mmm' symprec=0.1 version='1.16.2',tet,1.457555666854439,59.97280309933501,49.83938431664691,34.963698789181684,0.21571432263192866,False,True
197,Mg2Ge,"[Element Ge, Element Mg]",Mg2 Ge1,crystal_system=<CrystalSystem.cubic: 'Cubic'> symbol='Fm-3m' number=225 point_group='m-3m' symprec=0.1 version='1.16.2',cubic,3.1178885561064233,64.57586863742208,49.84221384518065,41.95759624642353,0.17132336792494565,False,True
198,Ca2GaCu2,"[Element Ca, Element Cu, Element Ga]",Ca2 Ga1 Cu2,crystal_system=<CrystalSystem.ortho: 'Orthorhombic'> symbol='Immm' number=71 point_group='mmm' symprec=0.1 version='1.16.2',ortho,4.485480879273855,102.53553146117173,49.848729863260495,24.303702264222487,0.29030442292740427,True,True
199,Li2TlPd,"[Element Li, Element Pd, Element Tl]",Li2 Tl1 Pd1,crystal_system=<CrystalSystem.cubic: 'Cubic'> symbol='Fm-3m' number=225 point_group='m-3m' symprec=0.1 version='1.16.2',cubic,8.744194785037257,61.658350283243806,50.07519247042042,14.484802308535496,0.36808843802214963,True,False
200,SnSb,"[Element Sb, Element Sn]",Sn1 Sb1,crystal_system=<CrystalSystem.cubic: 'Cubic'> symbol='Fm-3m' number=225 point_group='m-3m' symprec=0.1 version='1.16.2',cubic,6.904891459910608,57.82999365937484,50.13337155969057,23.17870325008694,0.2996987461377919,True,True
201,NaFeAs,"[Element As, Element Fe, Element Na]",Na1 Fe1 As1,crystal_system=<CrystalSystem.tet: 'Tetragonal'> symbol='P4/nmm' number=129 point_group='4/mmm' symprec=0.1 version='1.16.2',tet,4.640161143012655,110.04723761048047,50.1405377585608,32.440032315195566,0.23389691252335118,True,True
202,Na2MoO4,"[Element Mo, Element Na, Element O]",Na2 Mo1 O4,crystal_system=<CrystalSystem.cubic: 'Cubic'> symbol='Fd-3m' number=227 point_group='m-3m' symprec=0.1 version='1.16.2',cubic,3.713511976370623,184.15637554806096,50.171581834638395,27.245575418259786,0.27009288172200024,False,True
203,Sr3(GeN)2,"[Element Ge, Element N, Element Sr]",Sr3 Ge2 N2,crystal_system=<CrystalSystem.mono: 'Monoclinic'> symbol='P2_1/m' number=11 point_group='2/m' symprec=0.1 version='1.16.2',mono,4.616947034225405,313.7353555765559,50.19365276417261,29.70358434074489,0.25286080625474094,True,True
204,CaMgSi,"[Element Ca, Element Mg, Element Si]",Ca1 Mg1 Si1,crystal_system=<CrystalSystem.ortho: 'Orthorhombic'> symbol='Pnma' number=62 point_group='mmm' symprec=0.1 version='1.16.2',ortho,2.2485830505151094,273.14544889898934,50.302739205515905,40.31459867820391,0.18376212008040807,True,True
205,GaAgSe2,"[Element Ag, Element Ga, Element Se]",Ga1 Ag1 Se2,crystal_system=<CrystalSystem.tet: 'Tetragonal'> symbol='I-42d' number=122 point_group='-42m' symprec=0.1 version='1.16.2',tet,5.606598705752502,198.74062122913062,50.30783521240463,17.814632312230152,0.3416365808401214,False,True