,Formula,Elements,Composition,Symmetry,Crystal system,Density [g/m$^3$],Volume [$\mathring{A}^3$],Bulk modulus[GPa],Shear modulus [GPa],Poisson,Metal,Experimental report
2679,TiMn2Si,"[Element Mn, Element Si, Element Ti]",Ti1 Mn2 Si1,crystal_system=<CrystalSystem.cubic: 'Cubic'> symbol='Fm-3m' number=225 point_group='m-3m' symprec=0.1 version='1.16.2',cubic,6.477179093745654,47.640435584705976,206.57246090126097,105.12239611669906,0.28245731155698417,True,False
2680,BeRh,"[Element Be, Element Rh]",Be1 Rh1,crystal_system=<CrystalSystem.cubic: 'Cubic'> symbol='Pm-3m' number=221 point_group='m-3m' symprec=0.1 version='1.16.2',cubic,8.763995066485208,21.205361458384303,206.5838196640816,99.87125624430513,0.29182579816534265,True,True
2681,Si2Mo,"[Element Mo, Element Si]",Si2 Mo1,crystal_system=<CrystalSystem.tet: 'Tetragonal'> symbol='I4/mmm' number=139 point_group='4/mmm' symprec=0.1 version='1.16.2',tet,6.294884483450079,40.12563830578126,206.59450436090611,176.90151832826774,0.1669295053498824,True,True
2682,Fe3N,"[Element Fe, Element N]",Fe3 N1,crystal_system=<CrystalSystem.hex_: 'Hexagonal'> symbol='P6_322' number=182 point_group='622' symprec=0.1 version='1.16.2',hex_,7.387619510288772,81.61142696835876,206.6535755116655,95.51995689117632,0.2997431116509676,True,True
2683,Be2CoPt,"[Element Be, Element Co, Element Pt]",Be2 Co1 Pt1,crystal_system=<CrystalSystem.cubic: 'Cubic'> symbol='Fm-3m' number=225 point_group='m-3m' symprec=0.1 version='1.16.2',cubic,11.36223831713986,39.75762731334623,206.711434302658,110.82159422552829,0.2725821872561873,True,False
2684,TiB,"[Element B, Element Ti]",Ti1 B1,crystal_system=<CrystalSystem.ortho: 'Orthorhombic'> symbol='Pnma' number=62 point_group='mmm' symprec=0.1 version='1.16.2',ortho,4.58995713299857,84.91330836137911,207.15786021118296,189.76340769134555,0.14912212382626217,True,True
2685,Nb3Pt,"[Element Nb, Element Pt]",Nb3 Pt1,crystal_system=<CrystalSystem.cubic: 'Cubic'> symbol='Pm-3n' number=223 point_group='m-3m' symprec=0.1 version='1.16.2',cubic,11.224833487076186,140.1835714986066,207.21659223552172,80.27144090937509,0.3284605759987953,True,True
2686,V2P,"[Element P, Element V]",V2 P1,crystal_system=<CrystalSystem.ortho: 'Orthorhombic'> symbol='Pnma' number=62 point_group='mmm' symprec=0.1 version='1.16.2',ortho,5.847870119683923,150.90201324437245,207.41311100438324,102.11115793878915,0.28854609913097107,True,True
2687,ZrPRu,"[Element P, Element Ru, Element Zr]",Zr1 P1 Ru1,crystal_system=<CrystalSystem.ortho: 'Orthorhombic'> symbol='Pnma' number=62 point_group='mmm' symprec=0.1 version='1.16.2',ortho,8.09439793289572,183.21058301650325,207.51744177071203,107.56990220235505,0.27900295700786615,True,True
2688,HfMoP,"[Element Hf, Element Mo, Element P]",Hf1 Mo1 P1,crystal_system=<CrystalSystem.hex_: 'Hexagonal'> symbol='P-62m' number=189 point_group='-6m2' symprec=0.1 version='1.16.2',hex_,10.858305781503631,140.11436629961486,207.56504758573934,121.22217271455825,0.25557329384580507,True,True
2689,MnSiRh2,"[Element Mn, Element Rh, Element Si]",Mn1 Si1 Rh2,crystal_system=<CrystalSystem.cubic: 'Cubic'> symbol='Fm-3m' number=225 point_group='m-3m' symprec=0.1 version='1.16.2',cubic,9.09220786860689,52.75077876432485,207.77205014423112,25.206360378331073,0.441698954258021,True,False
2690,Al2IrRh,"[Element Al, Element Ir, Element Rh]",Al2 Ir1 Rh1,crystal_system=<CrystalSystem.cubic: 'Cubic'> symbol='Fm-3m' number=225 point_group='m-3m' symprec=0.1 version='1.16.2',cubic,10.87190089383895,53.31820480958453,208.00381797679142,95.7414467054779,0.30047017534580917,True,False
2691,NbInRu2,"[Element In, Element Nb, Element Ru]",Nb1 In1 Ru2,crystal_system=<CrystalSystem.cubic: 'Cubic'> symbol='Fm-3m' number=225 point_group='m-3m' symprec=0.1 version='1.16.2',cubic,10.580376556462525,64.3262374799012,208.00705265029382,95.2071021351649,0.3014390408051237,True,False
2692,BeO,"[Element Be, Element O]",Be1 O1,crystal_system=<CrystalSystem.hex_: 'Hexagonal'> symbol='P6_3mc' number=186 point_group='6mm' symprec=0.1 version='1.16.2',hex_,3.0194371089026797,27.51023288811809,208.35063060166277,156.14759902144118,0.2001772258141395,False,True
2693,Mn3GaC,"[Element C, Element Ga, Element Mn]",Mn3 Ga1 C1,crystal_system=<CrystalSystem.cubic: 'Cubic'> symbol='Pm-3m' number=221 point_group='m-3m' symprec=0.1 version='1.16.2',cubic,6.509819965987801,62.889959160495465,208.4227508835546,115.33415008687516,0.26640472068300547,True,True
2694,TaVO4,"[Element O, Element Ta, Element V]",Ta1 V1 O4,crystal_system=<CrystalSystem.tet: 'Tetragonal'> symbol='I4_1md' number=109 point_group='4mm' symprec=0.1 version='1.16.2',tet,7.385085491332305,133.06058275559766,208.65016112916024,98.37925407524382,0.2962683658000996,False,False
2695,TiAlRu2,"[Element Al, Element Ru, Element Ti]",Ti1 Al1 Ru2,crystal_system=<CrystalSystem.cubic: 'Cubic'> symbol='Fm-3m' number=225 point_group='m-3m' symprec=0.1 version='1.16.2',cubic,8.27512841287068,55.58225400228963,208.79409852831026,86.3670263605865,0.3182382844121701,True,False
2696,TiMn2,"[Element Mn, Element Ti]",Ti1 Mn2,crystal_system=<CrystalSystem.hex_: 'Hexagonal'> symbol='P6_3/mmc' number=194 point_group='6/mmm' symprec=0.1 version='1.16.2',hex_,6.054884797795227,173.04280572048526,208.80385468071592,61.246328983334735,0.3664023282408573,True,True
2697,ZrOs,"[Element Os, Element Zr]",Zr1 Os1,crystal_system=<CrystalSystem.cubic: 'Cubic'> symbol='Pm-3m' number=221 point_group='m-3m' symprec=0.1 version='1.16.2',cubic,13.287148705210011,35.17424037465451,208.82960075200162,98.8256413190442,0.29562179783997655,True,True
2698,MnNbSi,"[Element Mn, Element Nb, Element Si]",Mn1 Nb1 Si1,crystal_system=<CrystalSystem.hex_: 'Hexagonal'> symbol='P-62m' number=189 point_group='-6m2' symprec=0.1 version='1.16.2',hex_,6.615838988664909,132.4723201155756,209.0771074744672,105.3695706055568,0.28425585142975307,True,True
2699,MgB9N,"[Element B, Element Mg, Element N]",Mg1 B9 N1,crystal_system=<CrystalSystem.trig: 'Trigonal'> symbol='R-3m' number=166 point_group='-3m' symprec=0.1 version='1.16.2',trig,2.597931562214007,173.35858147630654,209.11702116348144,169.6742970042344,0.1806733409983498,False,True
2700,MnV3,"[Element Mn, Element V]",Mn1 V3,crystal_system=<CrystalSystem.cubic: 'Cubic'> symbol='Fm-3m' number=225 point_group='m-3m' symprec=0.1 version='1.16.2',cubic,6.984606346736168,49.394025292485416,209.2846283861357,54.40367116512478,0.38038900267014525,True,False
2701,P2Os,"[Element Os, Element P]",P2 Os1,crystal_system=<CrystalSystem.ortho: 'Orthorhombic'> symbol='Pnnm' number=58 point_group='mmm' symprec=0.1 version='1.16.2',ortho,9.447313995231188,88.64966921430491,209.4083536374685,156.5711907370109,0.20074170765735083,False,True
2702,ScCrC2,"[Element C, Element Cr, Element Sc]",Sc1 Cr1 C2,crystal_system=<CrystalSystem.hex_: 'Hexagonal'> symbol='P6_3/mmc' number=194 point_group='6/mmm' symprec=0.1 version='1.16.2',hex_,4.885074669049534,82.24278655088877,209.40916720267194,133.1823121275034,0.23762688031146428,True,True
2703,VCoSi,"[Element Co, Element Si, Element V]",V1 Co1 Si1,crystal_system=<CrystalSystem.ortho: 'Orthorhombic'> symbol='Pnma' number=62 point_group='mmm' symprec=0.1 version='1.16.2',ortho,6.489782300324203,141.19937022960517,209.4175809464527,112.0057945917536,0.2730405211256814,True,True
2704,MnSi,"[Element Mn, Element Si]",Mn1 Si1,crystal_system=<CrystalSystem.cubic: 'Cubic'> symbol='P2_13' number=198 point_group='23' symprec=0.1 version='1.16.2',cubic,6.1156456258243574,90.17124166774443,209.6108960493519,141.319348431284,0.22475691476654522,True,True
2705,Ti2MoIr,"[Element Ir, Element Mo, Element Ti]",Ti2 Mo1 Ir1,crystal_system=<CrystalSystem.cubic: 'Cubic'> symbol='Fm-3m' number=225 point_group='m-3m' symprec=0.1 version='1.16.2',cubic,10.563967258618726,60.34342848763158,209.83548469592932,88.54832679114364,0.31502457232561737,True,False
2706,Si2Ni6B,"[Element B, Element Ni, Element Si]",Si2 Ni6 B1,crystal_system=<CrystalSystem.hex_: 'Hexagonal'> symbol='P-62m' number=189 point_group='-6m2' symprec=0.1 version='1.16.2',hex_,7.7425504249311565,89.89316071192036,209.85900444238356,76.85576977755326,0.33680874185981385,True,True
2707,FeNiPt2,"[Element Fe, Element Ni, Element Pt]",Fe1 Ni1 Pt2,crystal_system=<CrystalSystem.tet: 'Tetragonal'> symbol='P4/mmm' number=123 point_group='4/mmm' symprec=0.1 version='1.16.2',tet,15.471273557938195,54.17037525866971,209.97274783926724,93.17863657842211,0.30670922705539266,True,True
2708,VNi2,"[Element Ni, Element V]",V1 Ni2,crystal_system=<CrystalSystem.ortho: 'Orthorhombic'> symbol='Immm' number=71 point_group='mmm' symprec=0.1 version='1.16.2',ortho,8.382778066480817,33.344043698595556,210.12346565926032,85.64823529220186,0.3205740086245956,True,True
2709,BeFeRh2,"[Element Be, Element Fe, Element Rh]",Be1 Fe1 Rh2,crystal_system=<CrystalSystem.cubic: 'Cubic'> symbol='Fm-3m' number=225 point_group='m-3m' symprec=0.1 version='1.16.2',cubic,9.291409624633921,48.37318646515999,210.27605300136042,89.47872607604782,0.3136654085999179,True,False
2710,UB2,"[Element B, Element U]",U1 B2,crystal_system=<CrystalSystem.hex_: 'Hexagonal'> symbol='P6/mmm' number=191 point_group='6/mmm' symprec=0.1 version='1.16.2',hex_,12.918052178965166,33.376586017767565,210.4911045671737,215.0255286583719,0.11897373410650315,True,True
2711,CoSi,"[Element Co, Element Si]",Co1 Si1,crystal_system=<CrystalSystem.cubic: 'Cubic'> symbol='P2_13' number=198 point_group='23' symprec=0.1 version='1.16.2',cubic,6.8639187984279575,84.20725641751147,210.50673450976052,116.06995091442059,0.2671117987084968,True,True
2712,V3Co,"[Element Co, Element V]",V3 Co1,crystal_system=<CrystalSystem.cubic: 'Cubic'> symbol='Pm-3n' number=223 point_group='m-3m' symprec=0.1 version='1.16.2',cubic,7.129261990099895,98.64469160733998,210.63075077347185,109.84717349900876,0.2778589697231135,True,True
2713,NbNi3,"[Element Nb, Element Ni]",Nb1 Ni3,crystal_system=<CrystalSystem.ortho: 'Orthorhombic'> symbol='Pmmn' number=59 point_group='mmm' symprec=0.1 version='1.16.2',ortho,9.201398899391465,97.08582996236935,210.78748571065262,77.03366183431143,0.3371142868389989,True,True
2714,ZrRh3,"[Element Rh, Element Zr]",Zr1 Rh3,crystal_system=<CrystalSystem.cubic: 'Cubic'> symbol='Pm-3m' number=221 point_group='m-3m' symprec=0.1 version='1.16.2',cubic,10.907019565052233,60.888936762657835,211.03355121590806,112.50632613719023,0.27366160218287194,True,True
2715,AlBMo,"[Element Al, Element B, Element Mo]",Al1 B1 Mo1,crystal_system=<CrystalSystem.ortho: 'Orthorhombic'> symbol='Cmcm' number=63 point_group='mmm' symprec=0.1 version='1.16.2',ortho,6.405741254456994,69.33408515880396,211.06274797179742,137.64208147992284,0.232154904370166,True,True
2716,TiGaRu2,"[Element Ga, Element Ru, Element Ti]",Ti1 Ga1 Ru2,crystal_system=<CrystalSystem.cubic: 'Cubic'> symbol='Fm-3m' number=225 point_group='m-3m' symprec=0.1 version='1.16.2',cubic,9.513862083613164,55.805323968117065,211.34843583139133,85.34966530492773,0.32203865359350553,True,False
2717,B,[Element B],B1,crystal_system=<CrystalSystem.trig: 'Trigonal'> symbol='R-3m' number=166 point_group='-3m' symprec=0.1 version='1.16.2',trig,2.4833098786521224,86.74916330018324,211.34898436347413,199.8239925437456,0.14054870794464983,False,True
2718,FeSi,"[Element Fe, Element Si]",Fe1 Si1,crystal_system=<CrystalSystem.cubic: 'Cubic'> symbol='P2_13' number=198 point_group='23' symprec=0.1 version='1.16.2',cubic,6.534565165631615,85.31240907185911,211.46491309801712,138.63790852193077,0.23098566616762145,False,True
2719,NbAlFe2,"[Element Al, Element Fe, Element Nb]",Nb1 Al1 Fe2,crystal_system=<CrystalSystem.cubic: 'Cubic'> symbol='Fm-3m' number=225 point_group='m-3m' symprec=0.1 version='1.16.2',cubic,7.529156989262648,51.074002221711446,211.83933718245942,123.83692924799074,0.25537738165314255,False,False
2720,NbCrP,"[Element Cr, Element Nb, Element P]",Nb1 Cr1 P1,crystal_system=<CrystalSystem.ortho: 'Orthorhombic'> symbol='Pnma' number=62 point_group='mmm' symprec=0.1 version='1.16.2',ortho,7.078905078306401,165.02516561370095,211.85364550024514,113.85596526590194,0.27211089382124215,True,True
2721,Fe3Si,"[Element Fe, Element Si]",Fe3 Si1,crystal_system=<CrystalSystem.cubic: 'Cubic'> symbol='Fm-3m' number=225 point_group='m-3m' symprec=0.1 version='1.16.2',cubic,7.29126271705659,44.55133425900721,211.87791723694903,92.74259762301486,0.3090082186746602,True,True
2722,Co3Pt,"[Element Co, Element Pt]",Co3 Pt1,crystal_system=<CrystalSystem.hex_: 'Hexagonal'> symbol='P6_3/mmc' number=194 point_group='6/mmm' symprec=0.1 version='1.16.2',hex_,12.855902707999423,96.06905639314043,212.02219355286294,90.89153102037855,0.3124550860080699,True,False
2723,TiRu,"[Element Ru, Element Ti]",Ti1 Ru1,crystal_system=<CrystalSystem.cubic: 'Cubic'> symbol='Pm-3m' number=221 point_group='m-3m' symprec=0.1 version='1.16.2',cubic,8.551042596345251,28.922286864517297,212.02556484399537,106.83758713002152,0.28428684889928973,True,True
2724,Co,[Element Co],Co1,crystal_system=<CrystalSystem.hex_: 'Hexagonal'> symbol='P6_3/mmc' number=194 point_group='6/mmm' symprec=0.1 version='1.16.2',hex_,9.197331638101419,21.280274859645473,212.07558268915477,104.66555630066176,0.2880956064391983,True,True
2725,Ti2MnIr,"[Element Ir, Element Mn, Element Ti]",Ti2 Mn1 Ir1,crystal_system=<CrystalSystem.cubic: 'Cubic'> symbol='Fm-3m' number=225 point_group='m-3m' symprec=0.1 version='1.16.2',cubic,10.190832453061292,55.8718492678805,212.17463089338816,97.12970968192383,0.3014123231266035,True,False
2726,YOs2,"[Element Os, Element Y]",Y1 Os2,crystal_system=<CrystalSystem.hex_: 'Hexagonal'> symbol='P6_3/mmc' number=194 point_group='6/mmm' symprec=0.1 version='1.16.2',hex_,14.471524515196155,215.43005497022472,212.33175989499847,49.47307079226444,0.39189653661847157,True,True
2727,TiTc2Sb,"[Element Sb, Element Tc, Element Ti]",Ti1 Tc2 Sb1,crystal_system=<CrystalSystem.cubic: 'Cubic'> symbol='Fm-3m' number=225 point_group='m-3m' symprec=0.1 version='1.16.2',cubic,9.69953927037389,62.594510974164514,212.46457196467463,93.46916869472582,0.308166817609051,True,False
2728,HfFeP,"[Element Fe, Element Hf, Element P]",Hf1 Fe1 P1,crystal_system=<CrystalSystem.ortho: 'Orthorhombic'> symbol='Pnma' number=62 point_group='mmm' symprec=0.1 version='1.16.2',ortho,11.010882985401853,160.04368209029806,212.74449528136722,124.91605341668297,0.254472655114852,True,True
2729,HfZnIr2,"[Element Hf, Element Ir, Element Zn]",Hf1 Zn1 Ir2,crystal_system=<CrystalSystem.cubic: 'Cubic'> symbol='Fm-3m' number=225 point_group='m-3m' symprec=0.1 version='1.16.2',cubic,16.955491752528072,61.53590285450793,212.85014087837777,87.29171970805382,0.3196059832798027,True,False
2730,Pt3O4,"[Element O, Element Pt]",Pt3 O4,crystal_system=<CrystalSystem.cubic: 'Cubic'> symbol='Pm-3n' number=223 point_group='m-3m' symprec=0.1 version='1.16.2',cubic,12.260547925324392,175.86560263715106,212.890434751444,58.18149812893252,0.3747622928473213,True,True
2731,Pr2(ReB2)3,"[Element B, Element Pr, Element Re]",Pr2 Re3 B6,crystal_system=<CrystalSystem.mono: 'Monoclinic'> symbol='C2/c' number=15 point_group='2/m' symprec=0.1 version='1.16.2',mono,10.839309186861847,277.3774251323962,213.0186154219992,118.02773202984638,0.26615316575313774,True,True
2732,VNi3,"[Element Ni, Element V]",V1 Ni3,crystal_system=<CrystalSystem.tet: 'Tetragonal'> symbol='I4/mmm' number=139 point_group='4/mmm' symprec=0.1 version='1.16.2',tet,8.685477305209414,43.40330284322307,213.09278949474106,100.80012916880602,0.29569708587304994,True,True
2733,NiPt,"[Element Ni, Element Pt]",Ni1 Pt1,crystal_system=<CrystalSystem.tet: 'Tetragonal'> symbol='P4/mmm' number=123 point_group='4/mmm' symprec=0.1 version='1.16.2',tet,16.036278150174454,52.55674452311622,213.2272725467451,90.78900384845849,0.3135674940511014,True,True
2734,SiC,"[Element C, Element Si]",Si1 C1,crystal_system=<CrystalSystem.trig: 'Trigonal'> symbol='P3m1' number=156 point_group='3m' symprec=0.1 version='1.16.2',trig,3.2276269883940567,206.28562954028098,213.29916271149708,186.78589400536333,0.16108083570906281,False,True
2735,ZnPt3,"[Element Pt, Element Zn]",Zn1 Pt3,crystal_system=<CrystalSystem.cubic: 'Cubic'> symbol='Pm-3m' number=221 point_group='m-3m' symprec=0.1 version='1.16.2',cubic,18.23451784100273,59.25289711710895,213.41622261264564,68.36075123757209,0.35529245858721586,True,True
2736,Be3N2,"[Element Be, Element N]",Be3 N2,crystal_system=<CrystalSystem.cubic: 'Cubic'> symbol='Ia-3' number=206 point_group='m-3' symprec=0.1 version='1.16.2',cubic,2.7242953358663557,268.4366404588809,213.65205582817788,186.2868631290798,0.16221499081551616,False,True
2737,MgSiIr2,"[Element Ir, Element Mg, Element Si]",Mg1 Si1 Ir2,crystal_system=<CrystalSystem.cubic: 'Cubic'> symbol='Fm-3m' number=225 point_group='m-3m' symprec=0.1 version='1.16.2',cubic,13.551799806299096,53.52529980267645,213.85096751157738,87.87306594402057,0.3192968106264093,True,False
2738,Fe3PtN,"[Element Fe, Element N, Element Pt]",Fe3 Pt1 N1,crystal_system=<CrystalSystem.cubic: 'Cubic'> symbol='Pm-3m' number=221 point_group='m-3m' symprec=0.1 version='1.16.2',cubic,10.966937722829178,57.02610009663068,214.10198981652428,100.25601516471644,0.29747950223281494,True,True
2739,TaPd3,"[Element Pd, Element Ta]",Ta1 Pd3,crystal_system=<CrystalSystem.tet: 'Tetragonal'> symbol='I4/mmm' number=139 point_group='4/mmm' symprec=0.1 version='1.16.2',tet,13.612307232527904,61.019393110400244,214.21143845994052,89.27423906422204,0.3170381288984224,True,True
2740,BeAl2O4,"[Element Al, Element Be, Element O]",Be1 Al2 O4,crystal_system=<CrystalSystem.ortho: 'Orthorhombic'> symbol='Pnma' number=62 point_group='mmm' symprec=0.1 version='1.16.2',ortho,3.7134860815134973,227.11100940878518,214.4747383395972,146.11764858140748,0.22240044134873665,False,True
2741,ScCo3C,"[Element C, Element Co, Element Sc]",Sc1 Co3 C1,crystal_system=<CrystalSystem.cubic: 'Cubic'> symbol='Pm-3m' number=221 point_group='m-3m' symprec=0.1 version='1.16.2',cubic,7.181779254269006,54.05038066831004,214.4788064468532,98.77120570131831,0.30038360756046134,True,True
2742,Ti2ReRh,"[Element Re, Element Rh, Element Ti]",Ti2 Re1 Rh1,crystal_system=<CrystalSystem.cubic: 'Cubic'> symbol='Fm-3m' number=225 point_group='m-3m' symprec=0.1 version='1.16.2',cubic,10.77742100732776,59.29550747435528,214.58738833319322,101.37928670961169,0.295919379178806,True,False
2743,TiFe2Ge,"[Element Fe, Element Ge, Element Ti]",Ti1 Fe2 Ge1,crystal_system=<CrystalSystem.cubic: 'Cubic'> symbol='Fm-3m' number=225 point_group='m-3m' symprec=0.1 version='1.16.2',cubic,8.1712147720253,47.18664242767824,214.5881294353697,126.77180916732169,0.25321378233169967,False,True
2744,Ta5Si3,"[Element Si, Element Ta]",Ta5 Si3,crystal_system=<CrystalSystem.tet: 'Tetragonal'> symbol='I4/mcm' number=140 point_group='4/mmm' symprec=0.1 version='1.16.2',tet,12.977537540026486,253.09367414149278,214.7113731718898,133.0118876962943,0.24326853680916655,True,True
2745,SiIr,"[Element Ir, Element Si]",Si1 Ir1,crystal_system=<CrystalSystem.ortho: 'Orthorhombic'> symbol='Pnma' number=62 point_group='mmm' symprec=0.1 version='1.16.2',ortho,12.910327133897084,113.34210324048406,214.86867902366293,86.63056966418509,0.3222930125497135,True,True
2746,NbSiPt,"[Element Nb, Element Pt, Element Si]",Nb1 Si1 Pt1,crystal_system=<CrystalSystem.ortho: 'Orthorhombic'> symbol='Pnma' number=62 point_group='mmm' symprec=0.1 version='1.16.2',ortho,11.456031930813703,183.25938681726208,214.9527932527547,80.55743063967104,0.3334249898782596,True,True
2747,MgTaIr2,"[Element Ir, Element Mg, Element Ta]",Mg1 Ta1 Ir2,crystal_system=<CrystalSystem.cubic: 'Cubic'> symbol='Fm-3m' number=225 point_group='m-3m' symprec=0.1 version='1.16.2',cubic,15.777878254938875,62.06145626677988,214.9604348733466,185.06601482219577,0.16552211721118212,True,False