,Formula,Elements,Composition,Symmetry,Crystal system,Density [g/m$^3$],Volume [$\mathring{A}^3$],Bulk modulus[GPa],Shear modulus [GPa],Poisson,Metal,Experimental report
2610,Al3Pt5,"[Element Al, Element Pt]",Al3 Pt5,crystal_system=<CrystalSystem.ortho: 'Orthorhombic'> symbol='Pbam' number=55 point_group='mmm' symprec=0.1 version='1.16.2',ortho,15.078719485042974,232.66361773621125,198.82416935490275,62.24346225647207,0.35826183424825025,True,True
2611,TiCr2,"[Element Cr, Element Ti]",Ti1 Cr2,crystal_system=<CrystalSystem.cubic: 'Cubic'> symbol='Fd-3m' number=227 point_group='m-3m' symprec=0.1 version='1.16.2',cubic,6.342420790965218,79.5179451296692,198.9108158276996,74.88966233666838,0.33274151957988995,True,True
2612,TaNiGe,"[Element Ge, Element Ni, Element Ta]",Ta1 Ni1 Ge1,crystal_system=<CrystalSystem.ortho: 'Orthorhombic'> symbol='Pnma' number=62 point_group='mmm' symprec=0.1 version='1.16.2',ortho,12.347616246472295,167.9855463133636,198.92369271703365,74.83970730236393,0.3328502707446109,True,True
2613,Li(Co3P2)2,"[Element Co, Element Li, Element P]",Li1 Co6 P4,crystal_system=<CrystalSystem.hex_: 'Hexagonal'> symbol='P-6m2' number=187 point_group='-6m2' symprec=0.1 version='1.16.2',hex_,6.6787066648538405,120.44601523811521,199.22335327380443,97.49242771891912,0.2896338709302203,True,True
2614,CuGeRh2,"[Element Cu, Element Ge, Element Rh]",Cu1 Ge1 Rh2,crystal_system=<CrystalSystem.cubic: 'Cubic'> symbol='Fm-3m' number=225 point_group='m-3m' symprec=0.1 version='1.16.2',cubic,10.85697943347378,52.30730910377124,199.26497119522043,67.26219014799042,0.34829380115546843,True,False
2615,B6P,"[Element B, Element P]",B6 P1,crystal_system=<CrystalSystem.trig: 'Trigonal'> symbol='R-3m' number=166 point_group='-3m' symprec=0.1 version='1.16.2',trig,2.607392551372756,122.07265749137633,199.32944691195087,190.37988366778296,0.13777101021835966,False,True
2616,ScPt3,"[Element Pt, Element Sc]",Sc1 Pt3,crystal_system=<CrystalSystem.cubic: 'Cubic'> symbol='Pm-3m' number=221 point_group='m-3m' symprec=0.1 version='1.16.2',cubic,16.546175481474044,63.24632898569905,199.51477234366155,90.32003497730824,0.3033284026514245,True,True
2617,NiH,"[Element H, Element Ni]",Ni1 H1,crystal_system=<CrystalSystem.cubic: 'Cubic'> symbol='Fm-3m' number=225 point_group='m-3m' symprec=0.1 version='1.16.2',cubic,7.974269842525211,12.432035704346784,199.6237939306593,68.52129704160197,0.34599479613405754,True,True
2618,GaNiRh2,"[Element Ga, Element Ni, Element Rh]",Ga1 Ni1 Rh2,crystal_system=<CrystalSystem.cubic: 'Cubic'> symbol='Fm-3m' number=225 point_group='m-3m' symprec=0.1 version='1.16.2',cubic,10.650076476711718,52.112081640140865,199.86873451355217,56.697102864634765,0.37041714788431473,True,False
2619,ScN,"[Element N, Element Sc]",Sc1 N1,crystal_system=<CrystalSystem.cubic: 'Cubic'> symbol='Fm-3m' number=225 point_group='m-3m' symprec=0.1 version='1.16.2',cubic,4.26661434920762,22.947872172454815,199.8819802023927,155.55237103872724,0.1910367078952196,True,True
2620,Fe3RhN,"[Element Fe, Element N, Element Rh]",Fe3 Rh1 N1,crystal_system=<CrystalSystem.cubic: 'Cubic'> symbol='Pm-3m' number=221 point_group='m-3m' symprec=0.1 version='1.16.2',cubic,8.34542646255786,56.59814871105021,199.9055793813332,83.16203384565867,0.3173276782275242,True,True
2621,HfMo2,"[Element Hf, Element Mo]",Hf1 Mo2,crystal_system=<CrystalSystem.cubic: 'Cubic'> symbol='Fd-3m' number=227 point_group='m-3m' symprec=0.1 version='1.16.2',cubic,11.421560797570164,107.69348690548155,199.93097317120618,67.98717738148663,0.3472839089598547,True,True
2622,UO2,"[Element O, Element U]",U1 O2,crystal_system=<CrystalSystem.cubic: 'Cubic'> symbol='Fm-3m' number=225 point_group='m-3m' symprec=0.1 version='1.16.2',cubic,11.055276852979338,40.559053154665804,200.00655640450694,89.3145353025117,0.305650434758527,True,True
2623,TaZnCo2,"[Element Co, Element Ta, Element Zn]",Ta1 Zn1 Co2,crystal_system=<CrystalSystem.cubic: 'Cubic'> symbol='Fm-3m' number=225 point_group='m-3m' symprec=0.1 version='1.16.2',cubic,11.925631404365536,50.71488026859542,200.05157051180814,75.46268063260527,0.33245839692540663,True,False
2624,VCo2Ge,"[Element Co, Element Ge, Element V]",V1 Co2 Ge1,crystal_system=<CrystalSystem.cubic: 'Cubic'> symbol='Fm-3m' number=225 point_group='m-3m' symprec=0.1 version='1.16.2',cubic,8.541219290336809,46.94103268683659,200.3721785378686,73.88116966431639,0.3358190648206055,True,False
2625,V3Ni,"[Element Ni, Element V]",V3 Ni1,crystal_system=<CrystalSystem.cubic: 'Cubic'> symbol='Pm-3n' number=223 point_group='m-3m' symprec=0.1 version='1.16.2',cubic,7.033232069898772,99.87832983314237,200.52963517058322,92.69508244207836,0.2997323486129939,True,True
2626,ScCoC2,"[Element C, Element Co, Element Sc]",Sc1 Co1 C2,crystal_system=<CrystalSystem.tet: 'Tetragonal'> symbol='P4/nmm' number=129 point_group='4/mmm' symprec=0.1 version='1.16.2',tet,5.293557083685992,80.24864587054374,200.66361312102725,102.82587265168314,0.28116465408911356,True,True
2627,SnPt3,"[Element Pt, Element Sn]",Sn1 Pt3,crystal_system=<CrystalSystem.cubic: 'Cubic'> symbol='Pm-3m' number=221 point_group='m-3m' symprec=0.1 version='1.16.2',cubic,17.869663336391046,65.41569252853934,200.76621327441217,58.26549328053091,0.3676915146601412,True,True
2628,TaMn2Al,"[Element Al, Element Mn, Element Ta]",Ta1 Mn2 Al1,crystal_system=<CrystalSystem.cubic: 'Cubic'> symbol='Fm-3m' number=225 point_group='m-3m' symprec=0.1 version='1.16.2',cubic,9.949682990319836,53.03972630328178,200.87136479601762,106.83689465726076,0.27411358295300736,True,False
2629,Al2RuPt,"[Element Al, Element Pt, Element Ru]",Al2 Ru1 Pt1,crystal_system=<CrystalSystem.cubic: 'Cubic'> symbol='Fm-3m' number=225 point_group='m-3m' symprec=0.1 version='1.16.2',cubic,10.724429518520425,54.2110965968302,200.904717162094,97.45598894073458,0.2912164844362717,True,False
2630,Be2C,"[Element Be, Element C]",Be2 C1,crystal_system=<CrystalSystem.cubic: 'Cubic'> symbol='Fm-3m' number=225 point_group='m-3m' symprec=0.1 version='1.16.2',cubic,2.466756874278714,20.218610784013585,201.08860142462802,230.95449804132653,0.08472390794069845,False,True
2631,TaV2,"[Element Ta, Element V]",Ta1 V2,crystal_system=<CrystalSystem.cubic: 'Cubic'> symbol='Fd-3m' number=227 point_group='m-3m' symprec=0.1 version='1.16.2',cubic,10.463169700917824,89.77236132176255,201.1708983861907,39.4987058515612,0.4078584630315006,True,True
2632,FePt,"[Element Fe, Element Pt]",Fe1 Pt1,crystal_system=<CrystalSystem.tet: 'Tetragonal'> symbol='P4/mmm' number=123 point_group='4/mmm' symprec=0.1 version='1.16.2',tet,14.981159977848371,27.81342753558363,201.19360602790132,92.39026057794143,0.30087478472034745,True,True
2633,HfScOs2,"[Element Hf, Element Os, Element Sc]",Hf1 Sc1 Os2,crystal_system=<CrystalSystem.cubic: 'Cubic'> symbol='Fm-3m' number=225 point_group='m-3m' symprec=0.1 version='1.16.2',cubic,15.013752074009881,66.79272139858045,201.31081038063593,93.14092158099899,0.29957434633563584,True,False
2634,TiCo2Si,"[Element Co, Element Si, Element Ti]",Ti1 Co2 Si1,crystal_system=<CrystalSystem.cubic: 'Cubic'> symbol='Fm-3m' number=225 point_group='m-3m' symprec=0.1 version='1.16.2',cubic,6.892749955913586,46.69309647797747,201.33400725392073,85.7330857479346,0.31355214890218713,True,True
2635,Ti3Pt5,"[Element Pt, Element Ti]",Ti3 Pt5,crystal_system=<CrystalSystem.ortho: 'Orthorhombic'> symbol='Ibam' number=72 point_group='mmm' symprec=0.1 version='1.16.2',ortho,15.072902173445792,246.5587669134329,201.51388495483002,72.5481166922088,0.33927954665727733,True,True
2636,ZrGeO4,"[Element Ge, Element O, Element Zr]",Zr1 Ge1 O4,crystal_system=<CrystalSystem.tet: 'Tetragonal'> symbol='I4_1/a' number=88 point_group='4/m' symprec=0.1 version='1.16.2',tet,6.0132058695292665,125.84737552236936,201.65127295130105,84.69557052773771,0.3157855893912743,False,True
2637,Hf2OsRh,"[Element Hf, Element Os, Element Rh]",Hf2 Os1 Rh1,crystal_system=<CrystalSystem.cubic: 'Cubic'> symbol='Fm-3m' number=225 point_group='m-3m' symprec=0.1 version='1.16.2',cubic,15.800661270545207,68.32259530584457,201.6610007224957,46.00648280025597,0.3939925670169566,True,False
2638,Ti2TcPt,"[Element Pt, Element Tc, Element Ti]",Ti2 Tc1 Pt1,crystal_system=<CrystalSystem.cubic: 'Cubic'> symbol='Fm-3m' number=225 point_group='m-3m' symprec=0.1 version='1.16.2',cubic,10.707051204205724,60.30114795226428,201.7527947328194,75.87616604132523,0.33290489519006017,True,False
2639,PtO2,"[Element O, Element Pt]",Pt1 O2,crystal_system=<CrystalSystem.ortho: 'Orthorhombic'> symbol='Pnnm' number=58 point_group='mmm' symprec=0.1 version='1.16.2',ortho,11.648979383694853,64.74041172752274,201.94134958611326,86.77715102377245,0.3120625165295585,False,True
2640,TaGaCo2,"[Element Co, Element Ga, Element Ta]",Ta1 Ga1 Co2,crystal_system=<CrystalSystem.cubic: 'Cubic'> symbol='Fm-3m' number=225 point_group='m-3m' symprec=0.1 version='1.16.2',cubic,11.839803194081389,51.68755969178869,202.16661168729638,85.63946448994201,0.31440268336432864,True,True
2641,AlRu,"[Element Al, Element Ru]",Al1 Ru1,crystal_system=<CrystalSystem.cubic: 'Cubic'> symbol='Pm-3m' number=221 point_group='m-3m' symprec=0.1 version='1.16.2',cubic,8.014834031012581,26.530129203021556,202.21080770459332,103.1178884478754,0.2820686653430564,True,True
2642,TiSiRu,"[Element Ru, Element Si, Element Ti]",Ti1 Si1 Ru1,crystal_system=<CrystalSystem.ortho: 'Orthorhombic'> symbol='Ima2' number=46 point_group='mm2' symprec=0.1 version='1.16.2',ortho,6.935010250310347,254.32070001976757,202.24880149725368,103.18841771402992,0.28197628609041864,True,True
2643,HfSnRu2,"[Element Hf, Element Ru, Element Sn]",Hf1 Sn1 Ru2,crystal_system=<CrystalSystem.cubic: 'Cubic'> symbol='Fm-3m' number=225 point_group='m-3m' symprec=0.1 version='1.16.2',cubic,12.638254929576933,65.60823326767635,202.26465471212623,108.62008677433002,0.2722575759392928,True,False
2644,ZrFeP,"[Element Fe, Element P, Element Zr]",Zr1 Fe1 P1,crystal_system=<CrystalSystem.ortho: 'Orthorhombic'> symbol='Pnma' number=62 point_group='mmm' symprec=0.1 version='1.16.2',ortho,7.146887737754844,165.46892727280576,202.27316010437897,118.77470677427115,0.25446046380751314,True,True
2645,TiSnRu2,"[Element Ru, Element Sn, Element Ti]",Ti1 Sn1 Ru2,crystal_system=<CrystalSystem.cubic: 'Cubic'> symbol='Fm-3m' number=225 point_group='m-3m' symprec=0.1 version='1.16.2',cubic,9.980357049380846,61.347402702144365,202.29382850096022,107.57604224754851,0.2741446382692609,True,False
2646,Ta2H,"[Element H, Element Ta]",Ta2 H1,crystal_system=<CrystalSystem.ortho: 'Orthorhombic'> symbol='C222' number=21 point_group='222' symprec=0.1 version='1.16.2',ortho,15.518980650317063,38.830886180103235,202.535976957179,65.75113428018449,0.35353029828438687,True,True
2647,Nb3AlC2,"[Element Al, Element C, Element Nb]",Nb3 Al1 C2,crystal_system=<CrystalSystem.hex_: 'Hexagonal'> symbol='P6_3/mmc' number=194 point_group='6/mmm' symprec=0.1 version='1.16.2',hex_,6.7073671040574485,163.25821567292772,202.634280076829,136.55717810212562,0.22485323306956806,True,False
2648,TaAlCo2,"[Element Al, Element Co, Element Ta]",Ta1 Al1 Co2,crystal_system=<CrystalSystem.cubic: 'Cubic'> symbol='Fm-3m' number=225 point_group='m-3m' symprec=0.1 version='1.16.2',cubic,10.424157085302447,51.89836103655951,202.78753892374868,97.89413922250941,0.2920852330436859,True,True
2649,Al(FeB)2,"[Element Al, Element B, Element Fe]",Al1 Fe2 B2,crystal_system=<CrystalSystem.ortho: 'Orthorhombic'> symbol='Cmmm' number=65 point_group='mmm' symprec=0.1 version='1.16.2',ortho,5.889954765931995,45.191125152340135,202.81987717486516,129.21284992873387,0.23725565238485416,True,True
2650,YRe2,"[Element Re, Element Y]",Y1 Re2,crystal_system=<CrystalSystem.hex_: 'Hexagonal'> symbol='P6_3/mmc' number=194 point_group='6/mmm' symprec=0.1 version='1.16.2',hex_,13.69260872553149,223.78193914054674,202.8482725801009,56.589291646475026,0.3723807180059199,True,True
2651,Mg(Co3P2)2,"[Element Co, Element Mg, Element P]",Mg1 Co6 P4,crystal_system=<CrystalSystem.hex_: 'Hexagonal'> symbol='P-6m2' number=187 point_group='-6m2' symprec=0.1 version='1.16.2',hex_,6.788386527573511,122.7474601945177,202.87119587397984,98.95083044631687,0.2902293531454021,True,True
2652,V2AsC,"[Element As, Element C, Element V]",V2 As1 C1,crystal_system=<CrystalSystem.hex_: 'Hexagonal'> symbol='P6_3/mmc' number=194 point_group='6/mmm' symprec=0.1 version='1.16.2',hex_,6.635102640125599,94.50801261933874,203.0771849187655,114.8150894799278,0.26213875778463924,True,True
2653,FeNi3,"[Element Fe, Element Ni]",Fe1 Ni3,crystal_system=<CrystalSystem.cubic: 'Cubic'> symbol='Pm-3m' number=221 point_group='m-3m' symprec=0.1 version='1.16.2',cubic,8.902684407157848,43.25895847991391,203.10862845342086,96.20692131450771,0.29545900544028936,True,True
2654,SiPt2,"[Element Pt, Element Si]",Si1 Pt2,crystal_system=<CrystalSystem.tet: 'Tetragonal'> symbol='I4/mmm' number=139 point_group='4/mmm' symprec=0.1 version='1.16.2',tet,14.954121923311776,46.44380191989044,203.29602184672345,66.67361687008028,0.35217840751957263,True,True
2655,Cr2O3,"[Element Cr, Element O]",Cr2 O3,crystal_system=<CrystalSystem.trig: 'Trigonal'> symbol='R-3c' number=167 point_group='-3m' symprec=0.1 version='1.16.2',trig,5.16795927428444,97.6733691397389,203.30498586671007,112.80226368345416,0.2658788381648538,True,True
2656,Al2NiO4,"[Element Al, Element Ni, Element O]",Al2 Ni1 O4,crystal_system=<CrystalSystem.ortho: 'Orthorhombic'> symbol='Imma' number=74 point_group='mmm' symprec=0.1 version='1.16.2',ortho,4.533626381964133,258.8135604925488,203.49735583265607,109.0614683490534,0.2726476288786383,False,False
2657,ZrSiO4,"[Element O, Element Si, Element Zr]",Zr1 Si1 O4,crystal_system=<CrystalSystem.tet: 'Tetragonal'> symbol='I4_1/amd' number=141 point_group='4/mmm' symprec=0.1 version='1.16.2',tet,4.634255277198485,131.36462388371615,203.4995246655625,95.7274533874222,0.2966781532917996,False,True
2658,TiBeRh2,"[Element Be, Element Rh, Element Ti]",Ti1 Be1 Rh2,crystal_system=<CrystalSystem.cubic: 'Cubic'> symbol='Fm-3m' number=225 point_group='m-3m' symprec=0.1 version='1.16.2',cubic,8.548145251585181,51.029468590554565,203.6458885196691,93.65159610894094,0.30062512756600285,True,False
2659,Nb3Rh,"[Element Nb, Element Rh]",Nb3 Rh1,crystal_system=<CrystalSystem.cubic: 'Cubic'> symbol='Pm-3n' number=223 point_group='m-3m' symprec=0.1 version='1.16.2',cubic,9.163802945261951,138.30559807591897,203.7240070367746,89.04206926559638,0.30925390429277244,True,True
2660,YCo3B2,"[Element B, Element Co, Element Y]",Y1 Co3 B2,crystal_system=<CrystalSystem.hex_: 'Hexagonal'> symbol='P6/mmm' number=191 point_group='6/mmm' symprec=0.1 version='1.16.2',hex_,7.424815240270436,64.25997351903048,203.842383325034,122.76931620425782,0.24921032200445706,True,True
2661,TaPd,"[Element Pd, Element Ta]",Ta1 Pd1,crystal_system=<CrystalSystem.tet: 'Tetragonal'> symbol='P4/nmm' number=129 point_group='4/mmm' symprec=0.1 version='1.16.2',tet,14.516379336931651,65.74443670151213,203.87041406982212,71.49371288199252,0.3430101135650075,True,True
2662,Ti2N,"[Element N, Element Ti]",Ti2 N1,crystal_system=<CrystalSystem.tet: 'Tetragonal'> symbol='P4_2/mnm' number=136 point_group='4/mmm' symprec=0.1 version='1.16.2',tet,4.924737176612915,74.00545978835848,203.9169535761352,117.15945631771984,0.2589014994481701,True,True
2663,Ti2TcRh,"[Element Rh, Element Tc, Element Ti]",Ti2 Tc1 Rh1,crystal_system=<CrystalSystem.cubic: 'Cubic'> symbol='Fm-3m' number=225 point_group='m-3m' symprec=0.1 version='1.16.2',cubic,8.389808413921712,58.71188639174653,204.089424756725,93.96276564455206,0.3004277063723421,True,False
2664,TiCrP,"[Element Cr, Element P, Element Ti]",Ti1 Cr1 P1,crystal_system=<CrystalSystem.hex_: 'Hexagonal'> symbol='P-62m' number=189 point_group='-6m2' symprec=0.1 version='1.16.2',hex_,5.726508879919227,113.8178907558513,204.30662971493126,122.90814964267975,0.24944930779232197,True,True
2665,SiRu,"[Element Ru, Element Si]",Si1 Ru1,crystal_system=<CrystalSystem.cubic: 'Cubic'> symbol='P2_13' number=198 point_group='23' symprec=0.1 version='1.16.2',cubic,8.217654487757938,104.39365818349003,204.4644479526085,99.3430166347822,0.29092616398975085,False,True
2666,AlPt2,"[Element Al, Element Pt]",Al1 Pt2,crystal_system=<CrystalSystem.ortho: 'Orthorhombic'> symbol='Pnma' number=62 point_group='mmm' symprec=0.1 version='1.16.2',ortho,15.807795865163374,175.27885895490226,204.5369124762616,57.77926497501327,0.37091124807903514,True,True
2667,BeCo2Ge,"[Element Be, Element Co, Element Ge]",Be1 Co2 Ge1,crystal_system=<CrystalSystem.cubic: 'Cubic'> symbol='Fm-3m' number=225 point_group='m-3m' symprec=0.1 version='1.16.2',cubic,8.24022963616812,40.20620758723299,204.54806452886504,95.54557732855963,0.2979125307914437,True,False
2668,HfO2,"[Element Hf, Element O]",Hf1 O2,crystal_system=<CrystalSystem.mono: 'Monoclinic'> symbol='P2_1/c' number=14 point_group='2/m' symprec=0.1 version='1.16.2',mono,10.24124328616322,136.51657937039403,204.5734326140447,98.56437402157482,0.29243332494363755,False,True
2669,InPt3,"[Element In, Element Pt]",In1 Pt3,crystal_system=<CrystalSystem.cubic: 'Cubic'> symbol='Pm-3m' number=221 point_group='m-3m' symprec=0.1 version='1.16.2',cubic,17.91275209288864,64.89754217143282,204.5878253804828,63.684831582492485,0.35898961399034757,True,True
2670,TaPd2,"[Element Pd, Element Ta]",Ta1 Pd2,crystal_system=<CrystalSystem.ortho: 'Orthorhombic'> symbol='Immm' number=71 point_group='mmm' symprec=0.1 version='1.16.2',ortho,13.976380695794312,46.7860866791043,204.69064922961172,71.72399054929741,0.3431224511181219,True,True
2671,Ti3Rh5,"[Element Rh, Element Ti]",Ti3 Rh5,crystal_system=<CrystalSystem.ortho: 'Orthorhombic'> symbol='Pbam' number=55 point_group='mmm' symprec=0.1 version='1.16.2',ortho,9.480007736554613,230.55847958411888,205.1246262336499,71.07468543310512,0.34469043462251653,True,True
2672,ScTaRu2,"[Element Ru, Element Sc, Element Ta]",Sc1 Ta1 Ru2,crystal_system=<CrystalSystem.cubic: 'Cubic'> symbol='Fm-3m' number=225 point_group='m-3m' symprec=0.1 version='1.16.2',cubic,11.157196307323364,63.70627702992554,205.34200375455123,101.16269600842472,0.28841824686585554,True,False
2673,Nb2AsC,"[Element As, Element C, Element Nb]",Nb2 As1 C1,crystal_system=<CrystalSystem.hex_: 'Hexagonal'> symbol='P6_3/mmc' number=194 point_group='6/mmm' symprec=0.1 version='1.16.2',hex_,7.77729209891457,116.46825696963857,205.65203767801333,118.78749593452311,0.25782155396283163,True,True
2674,Ti2MnOs,"[Element Mn, Element Os, Element Ti]",Ti2 Mn1 Os1,crystal_system=<CrystalSystem.cubic: 'Cubic'> symbol='Fm-3m' number=225 point_group='m-3m' symprec=0.1 version='1.16.2',cubic,9.985094716311277,56.69261831653955,205.73036644083666,89.3840039480377,0.31024521625308554,True,False
2675,Ti2TcRu,"[Element Ru, Element Tc, Element Ti]",Ti2 Tc1 Ru1,crystal_system=<CrystalSystem.cubic: 'Cubic'> symbol='Fm-3m' number=225 point_group='m-3m' symprec=0.1 version='1.16.2',cubic,8.382961396688415,58.39625590824389,205.88778469541182,93.59841160404446,0.3026076696674245,True,False
2676,Mn3Si,"[Element Mn, Element Si]",Mn3 Si1,crystal_system=<CrystalSystem.cubic: 'Cubic'> symbol='Fm-3m' number=225 point_group='m-3m' symprec=0.1 version='1.16.2',cubic,7.127173599106332,44.94311460163464,206.25381648687238,99.70899420781245,0.2918306972405653,True,True
2677,Ni3Pt,"[Element Ni, Element Pt]",Ni3 Pt1,crystal_system=<CrystalSystem.cubic: 'Cubic'> symbol='Pm-3m' number=221 point_group='m-3m' symprec=0.1 version='1.16.2',cubic,12.943354831107904,47.61768971534715,206.37122731325513,91.98147003785391,0.30597223216461567,True,True
2678,TiTc,"[Element Tc, Element Ti]",Ti1 Tc1,crystal_system=<CrystalSystem.cubic: 'Cubic'> symbol='Pm-3m' number=221 point_group='m-3m' symprec=0.1 version='1.16.2',cubic,8.174219417244446,29.631924427763224,206.53526685647955,71.75276055083916,0.34432225638190345,True,True