,Formula,Elements,Composition,Symmetry,Crystal system,Density [g/m$^3$],Volume [$\mathring{A}^3$],Bulk modulus[GPa],Shear modulus [GPa],Poisson,Metal,Experimental report
1718,YNi3,"[Element Ni, Element Y]",Y1 Ni3,crystal_system=<CrystalSystem.trig: 'Trigonal'> symbol='R-3m' number=166 point_group='-3m' symprec=0.1 version='1.16.2',trig,7.788807287711017,169.48154134841906,131.9481619004698,51.99326142686613,0.32585234799790047,True,True
1719,CaPt2,"[Element Ca, Element Pt]",Ca1 Pt2,crystal_system=<CrystalSystem.cubic: 'Cubic'> symbol='Fd-3m' number=227 point_group='m-3m' symprec=0.1 version='1.16.2',cubic,12.711735681115098,112.40641076415325,132.03474455943717,59.06660864055682,0.30534800403852125,True,True
1720,LuTaO4,"[Element Lu, Element O, Element Ta]",Lu1 Ta1 O4,crystal_system=<CrystalSystem.mono: 'Monoclinic'> symbol='P2/c' number=13 point_group='2/m' symprec=0.1 version='1.16.2',mono,9.879084564383504,141.16309523389617,132.04972078265496,57.03021111196899,0.3112329870293255,False,True
1721,Y(SiPd)2,"[Element Pd, Element Si, Element Y]",Y1 Si2 Pd2,crystal_system=<CrystalSystem.tet: 'Tetragonal'> symbol='I4/mmm' number=139 point_group='4/mmm' symprec=0.1 version='1.16.2',tet,6.994409284249737,84.97285301244194,132.0724519119962,52.6331124082089,0.32410697054915405,True,True
1722,LiTi2O4,"[Element Li, Element O, Element Ti]",Li1 Ti2 O4,crystal_system=<CrystalSystem.cubic: 'Cubic'> symbol='Fd-3m' number=227 point_group='m-3m' symprec=0.1 version='1.16.2',cubic,3.7411501655686776,147.9579013849742,132.11946570837824,65.0873347480861,0.2884236533604939,True,True
1723,Li2ZrN2,"[Element Li, Element N, Element Zr]",Li2 Zr1 N2,crystal_system=<CrystalSystem.trig: 'Trigonal'> symbol='P-3m1' number=164 point_group='-3m' symprec=0.1 version='1.16.2',trig,4.370752214047623,50.574810329420224,132.16890178438655,113.3292628022528,0.16657139781954297,False,True
1724,YNbO4,"[Element Nb, Element O, Element Y]",Y1 Nb1 O4,crystal_system=<CrystalSystem.mono: 'Monoclinic'> symbol='C2/c' number=15 point_group='2/m' symprec=0.1 version='1.16.2',mono,5.474794004786983,149.11130000961057,132.26260428281105,51.24165909113319,0.32844323096881545,False,True
1725,Zr2InCo2,"[Element Co, Element In, Element Zr]",Zr2 In1 Co2,crystal_system=<CrystalSystem.tet: 'Tetragonal'> symbol='P4/mbm' number=127 point_group='4/mmm' symprec=0.1 version='1.16.2',tet,7.892931820442236,174.6736363845605,132.342949378534,52.60891314014732,0.3244956796192529,True,True
1726,ScSiNi,"[Element Ni, Element Sc, Element Si]",Sc1 Si1 Ni1,crystal_system=<CrystalSystem.ortho: 'Orthorhombic'> symbol='Pnma' number=62 point_group='mmm' symprec=0.1 version='1.16.2',ortho,4.939741792025897,177.13541392817774,132.36337569410006,71.91415561903084,0.2699994703518725,True,True
1727,Ti3Cu4,"[Element Cu, Element Ti]",Ti3 Cu4,crystal_system=<CrystalSystem.tet: 'Tetragonal'> symbol='I4/mmm' number=139 point_group='4/mmm' symprec=0.1 version='1.16.2',tet,6.878857245886687,96.0243117419625,132.37494195216613,60.945229284231274,0.3004282469451943,True,True
1728,Hf2Ge,"[Element Ge, Element Hf]",Hf2 Ge1,crystal_system=<CrystalSystem.tet: 'Tetragonal'> symbol='I4/mcm' number=140 point_group='4/mmm' symprec=0.1 version='1.16.2',tet,12.450080188393061,114.60179902419904,132.69871710678433,93.13520070712504,0.21560691213195818,True,True
1729,Zr3(Cu2Ge)2,"[Element Cu, Element Ge, Element Zr]",Zr3 Cu4 Ge2,crystal_system=<CrystalSystem.hex_: 'Hexagonal'> symbol='P-62m' number=189 point_group='-6m2' symprec=0.1 version='1.16.2',hex_,7.856658415983964,142.27023321528338,132.70503318060304,71.06723603392071,0.2727944000277162,True,True
1730,TaAl3,"[Element Al, Element Ta]",Ta1 Al3,crystal_system=<CrystalSystem.tet: 'Tetragonal'> symbol='I4/mmm' number=139 point_group='4/mmm' symprec=0.1 version='1.16.2',tet,6.95826382842547,62.4987398075825,132.79149837347856,103.53177967912134,0.19058432357574687,True,True
1731,Zn(GaNi)3,"[Element Ga, Element Ni, Element Zn]",Zn1 Ga3 Ni3,crystal_system=<CrystalSystem.cubic: 'Cubic'> symbol='Ia-3d' number=230 point_group='m-3m' symprec=0.1 version='1.16.2',cubic,7.95169055816349,752.8819601918417,132.8131417523436,63.30020679129953,0.2943639583941739,True,True
1732,ScAlNi2,"[Element Al, Element Ni, Element Sc]",Sc1 Al1 Ni2,crystal_system=<CrystalSystem.cubic: 'Cubic'> symbol='Fm-3m' number=225 point_group='m-3m' symprec=0.1 version='1.16.2',cubic,5.796019844859692,54.240724288562,132.86324961228226,56.50030313506386,0.31377212194516,True,True
1733,CaNi4B,"[Element B, Element Ca, Element Ni]",Ca1 Ni4 B1,crystal_system=<CrystalSystem.hex_: 'Hexagonal'> symbol='P6/mmm' number=191 point_group='6/mmm' symprec=0.1 version='1.16.2',hex_,6.4820286192074965,146.35970774980143,132.89867591046038,61.23773066388683,0.30028298788868535,True,True
1734,Al21Pt8,"[Element Al, Element Pt]",Al21 Pt8,crystal_system=<CrystalSystem.tet: 'Tetragonal'> symbol='I4_1/a' number=88 point_group='4/m' symprec=0.1 version='1.16.2',tet,7.889845410697907,895.4392689942657,132.90103126218722,62.37747140823666,0.29707189117193666,True,True
1735,Hf(CuP)2,"[Element Cu, Element Hf, Element P]",Hf1 Cu2 P2,crystal_system=<CrystalSystem.trig: 'Trigonal'> symbol='P-3m1' number=164 point_group='-3m' symprec=0.1 version='1.16.2',trig,8.066048665638801,75.66246597677439,132.91611245672493,64.66089560221897,0.2907004511299704,True,True
1736,MnAl,"[Element Al, Element Mn]",Mn1 Al1,crystal_system=<CrystalSystem.tet: 'Tetragonal'> symbol='P4/mmm' number=123 point_group='4/mmm' symprec=0.1 version='1.16.2',tet,5.071908127930998,53.64082528951334,132.96648954550585,83.79319684825612,0.23960699165347274,True,True
1737,ZnSnN2,"[Element N, Element Sn, Element Zn]",Zn1 Sn1 N2,crystal_system=<CrystalSystem.ortho: 'Orthorhombic'> symbol='Pna2_1' number=33 point_group='mm2' symprec=0.1 version='1.16.2',ortho,6.518092302715617,216.17008236895262,132.97970936849134,64.95872507351817,0.2899578820152864,False,False
1738,PrN,"[Element N, Element Pr]",Pr1 N1,crystal_system=<CrystalSystem.cubic: 'Cubic'> symbol='Fm-3m' number=225 point_group='m-3m' symprec=0.1 version='1.16.2',cubic,7.262309610698616,35.421421550657314,132.99865060960443,89.69380729574138,0.22469095488182506,True,True
1739,AlCu3,"[Element Al, Element Cu]",Al1 Cu3,crystal_system=<CrystalSystem.ortho: 'Orthorhombic'> symbol='Pmmn' number=59 point_group='mmm' symprec=0.1 version='1.16.2',ortho,7.517442305877194,96.14061027598393,133.02778554774733,45.742879448762245,0.3457502871774143,True,True
1740,LiNi2Ge,"[Element Ge, Element Li, Element Ni]",Li1 Ni2 Ge1,crystal_system=<CrystalSystem.cubic: 'Cubic'> symbol='Fm-3m' number=225 point_group='m-3m' symprec=0.1 version='1.16.2',cubic,7.400719567802852,44.194719684447904,133.09765093519417,36.69617017384185,0.37374855848557376,True,True
1741,Be12Nb,"[Element Be, Element Nb]",Be12 Nb1,crystal_system=<CrystalSystem.tet: 'Tetragonal'> symbol='I4/mmm' number=139 point_group='4/mmm' symprec=0.1 version='1.16.2',tet,2.95064540871129,113.14664784065326,133.15035604678616,137.8231012306975,0.11521572479828318,True,True
1742,MgMnRh2,"[Element Mg, Element Mn, Element Rh]",Mg1 Mn1 Rh2,crystal_system=<CrystalSystem.cubic: 'Cubic'> symbol='Fm-3m' number=225 point_group='m-3m' symprec=0.1 version='1.16.2',cubic,8.287342717591198,57.11642367705007,133.24878082811966,59.457651091942104,0.30578026784278395,True,False
1743,HfZnCu2,"[Element Cu, Element Hf, Element Zn]",Hf1 Zn1 Cu2,crystal_system=<CrystalSystem.cubic: 'Cubic'> symbol='Fm-3m' number=225 point_group='m-3m' symprec=0.1 version='1.16.2',cubic,10.82286235422546,56.92071364249443,133.3718663093494,43.18902840256481,0.3538622459369634,True,False
1744,SnPd2,"[Element Pd, Element Sn]",Sn1 Pd2,crystal_system=<CrystalSystem.ortho: 'Orthorhombic'> symbol='Pnma' number=62 point_group='mmm' symprec=0.1 version='1.16.2',ortho,10.882410903236414,202.36388146949923,133.3935251055807,22.601591036233206,0.41981121898588986,True,True
1745,Ba2YTaO6,"[Element Ba, Element O, Element Ta, Element Y]",Ba2 Y1 Ta1 O6,crystal_system=<CrystalSystem.tet: 'Tetragonal'> symbol='I4/m' number=87 point_group='4/m' symprec=0.1 version='1.16.2',tet,6.839389322384703,155.50834731730168,133.64450888887797,75.44106675227488,0.26245248656890147,False,True
1746,FeAs2,"[Element As, Element Fe]",Fe1 As2,crystal_system=<CrystalSystem.ortho: 'Orthorhombic'> symbol='Pnnm' number=58 point_group='mmm' symprec=0.1 version='1.16.2',ortho,7.60188367003951,89.86017320542841,133.65145920332486,110.4774733731127,0.1759759687607936,False,True
1747,Hf2Au,"[Element Au, Element Hf]",Hf2 Au1,crystal_system=<CrystalSystem.tet: 'Tetragonal'> symbol='I4/mmm' number=139 point_group='4/mmm' symprec=0.1 version='1.16.2',tet,15.203433235381665,60.50277620799777,133.8507550568549,59.00204998866858,0.3078335777781095,True,True
1748,BaSnO3,"[Element Ba, Element O, Element Sn]",Ba1 Sn1 O3,crystal_system=<CrystalSystem.cubic: 'Cubic'> symbol='Pm-3m' number=221 point_group='m-3m' symprec=0.1 version='1.16.2',cubic,7.097114448493584,71.13628093297905,133.95954237520777,89.73174989603476,0.2262107735408474,False,True
1749,Ba2YNbO6,"[Element Ba, Element Nb, Element O, Element Y]",Ba2 Y1 Nb1 O6,crystal_system=<CrystalSystem.cubic: 'Cubic'> symbol='Fm-3m' number=225 point_group='m-3m' symprec=0.1 version='1.16.2',cubic,5.8406097289002,157.07020714159697,134.00500225262925,77.05712355023758,0.25873009926289176,False,True
1750,ZrPd,"[Element Pd, Element Zr]",Zr1 Pd1,crystal_system=<CrystalSystem.ortho: 'Orthorhombic'> symbol='Cmcm' number=63 point_group='mmm' symprec=0.1 version='1.16.2',ortho,8.613435580028481,76.20550017000421,134.03413733987153,32.772336848204624,0.3869593937098225,True,True
1751,TaAs2,"[Element As, Element Ta]",Ta1 As2,crystal_system=<CrystalSystem.mono: 'Monoclinic'> symbol='C2/m' number=12 point_group='2/m' symprec=0.1 version='1.16.2',mono,10.130225829850296,108.44605450043025,134.30012120035053,96.46963006329975,0.21022599088680555,False,True
1752,ZrP,"[Element P, Element Zr]",Zr1 P1,crystal_system=<CrystalSystem.hex_: 'Hexagonal'> symbol='P6_3/mmc' number=194 point_group='6/mmm' symprec=0.1 version='1.16.2',hex_,5.421727378204983,149.7044343968984,134.38392710311888,81.61174523723857,0.24746941312200574,True,True
1753,As3W2,"[Element As, Element W]",As3 W2,crystal_system=<CrystalSystem.mono: 'Monoclinic'> symbol='C2/m' number=12 point_group='2/m' symprec=0.1 version='1.16.2',mono,11.240046269237876,175.04869849094098,134.45180234616822,73.65982350910527,0.26837273070543993,True,True
1754,CoAsS,"[Element As, Element Co, Element S]",Co1 As1 S1,crystal_system=<CrystalSystem.ortho: 'Orthorhombic'> symbol='Pmn2_1' number=31 point_group='mm2' symprec=0.1 version='1.16.2',ortho,6.258513502881539,88.04528468075057,134.46274708439623,95.45053730890663,0.21298180471040212,True,True
1755,TiAlCu2,"[Element Al, Element Cu, Element Ti]",Ti1 Al1 Cu2,crystal_system=<CrystalSystem.cubic: 'Cubic'> symbol='Fm-3m' number=225 point_group='m-3m' symprec=0.1 version='1.16.2',cubic,6.275869888405448,53.43166117816773,134.46442078175815,62.22834477265031,0.2995313882945831,True,True
1756,ZrAlAu2,"[Element Al, Element Au, Element Zr]",Zr1 Al1 Au2,crystal_system=<CrystalSystem.cubic: 'Cubic'> symbol='Fm-3m' number=225 point_group='m-3m' symprec=0.1 version='1.16.2',cubic,11.792074361304309,72.11846312653837,134.5736521646653,14.586117732975767,0.4476958962745342,True,False
1757,ZrNiSb,"[Element Ni, Element Sb, Element Zr]",Zr1 Ni1 Sb1,crystal_system=<CrystalSystem.ortho: 'Orthorhombic'> symbol='Pnma' number=62 point_group='mmm' symprec=0.1 version='1.16.2',ortho,8.446079222021567,213.65223998187253,134.59455053061527,54.234007663804434,0.322384552534689,True,True
1758,ReBiO4,"[Element Bi, Element O, Element Re]",Re1 Bi1 O4,crystal_system=<CrystalSystem.ortho: 'Orthorhombic'> symbol='Cmcm' number=63 point_group='mmm' symprec=0.1 version='1.16.2',ortho,9.504480017161391,160.44952063026116,134.69079837744567,65.67980504714158,0.2902730257930226,True,True
1759,HfAlCu2,"[Element Al, Element Cu, Element Hf]",Hf1 Al1 Cu2,crystal_system=<CrystalSystem.cubic: 'Cubic'> symbol='Fm-3m' number=225 point_group='m-3m' symprec=0.1 version='1.16.2',cubic,9.494673917325734,58.16258175694982,134.71177223650614,52.94584541644308,0.3262479955304337,True,True
1760,SbRh,"[Element Rh, Element Sb]",Sb1 Rh1,crystal_system=<CrystalSystem.ortho: 'Orthorhombic'> symbol='Pnma' number=62 point_group='mmm' symprec=0.1 version='1.16.2',ortho,10.002883749494003,149.1833151359352,134.74995486787822,56.884374504432756,0.31496372526644517,True,True
1761,Ca(BC)2,"[Element B, Element C, Element Ca]",Ca1 B2 C2,crystal_system=<CrystalSystem.tet: 'Tetragonal'> symbol='I4/mcm' number=140 point_group='4/mmm' symprec=0.1 version='1.16.2',tet,2.687135181770838,105.94460190115173,134.75099189652707,94.69940166728917,0.215305289748455,False,True
1762,LaRh2,"[Element La, Element Rh]",La1 Rh2,crystal_system=<CrystalSystem.cubic: 'Cubic'> symbol='Fd-3m' number=227 point_group='m-3m' symprec=0.1 version='1.16.2',cubic,10.201482809141346,112.22195362080441,134.830085932331,44.387598642294364,0.351671458040731,True,True
1763,TiZnAu2,"[Element Au, Element Ti, Element Zn]",Ti1 Zn1 Au2,crystal_system=<CrystalSystem.cubic: 'Cubic'> symbol='Fm-3m' number=225 point_group='m-3m' symprec=0.1 version='1.16.2',cubic,12.975509384021349,64.91002115282542,134.8812807191492,26.15015777835015,0.4089466504329887,True,False
1764,CuAu,"[Element Au, Element Cu]",Cu1 Au1,crystal_system=<CrystalSystem.tet: 'Tetragonal'> symbol='P4/mmm' number=123 point_group='4/mmm' symprec=0.1 version='1.16.2',tet,14.86263662404068,58.21191880115012,134.9496743740712,28.283785065410658,0.4020492634219063,True,True
1765,LiAl2Ir,"[Element Al, Element Ir, Element Li]",Li1 Al2 Ir1,crystal_system=<CrystalSystem.cubic: 'Cubic'> symbol='Fm-3m' number=225 point_group='m-3m' symprec=0.1 version='1.16.2',cubic,7.805179437674647,53.85109216601141,134.96004745071323,55.34994259490915,0.31960128942479704,True,True
1766,KGe2N3,"[Element Ge, Element K, Element N]",K1 Ge2 N3,crystal_system=<CrystalSystem.ortho: 'Orthorhombic'> symbol='Cmc2_1' number=36 point_group='mm2' symprec=0.1 version='1.16.2',ortho,4.783222284349028,157.19252230691484,135.00303404593419,78.57560725508903,0.25627142754243987,False,False
1767,HfSiS,"[Element Hf, Element S, Element Si]",Hf1 Si1 S1,crystal_system=<CrystalSystem.tet: 'Tetragonal'> symbol='P4/nmm' number=129 point_group='4/mmm' symprec=0.1 version='1.16.2',tet,7.984868078782171,99.25570947776899,135.09267093389371,92.2404061461148,0.22189851882912862,True,True
1768,Li(Fe3Ge2)2,"[Element Fe, Element Ge, Element Li]",Li1 Fe6 Ge4,crystal_system=<CrystalSystem.trig: 'Trigonal'> symbol='R-3m' number=166 point_group='-3m' symprec=0.1 version='1.16.2',trig,7.266155627036596,144.56184422884752,135.10793111988343,65.18803924152735,0.29217938405137933,True,True
1769,NaGe2N3,"[Element Ge, Element N, Element Na]",Na1 Ge2 N3,crystal_system=<CrystalSystem.ortho: 'Orthorhombic'> symbol='Cmc2_1' number=36 point_group='mm2' symprec=0.1 version='1.16.2',ortho,4.7718508486159985,146.35601754020692,135.31531163258992,77.93061211789023,0.25841788799684856,False,True
1770,Ti2SnC,"[Element C, Element Sn, Element Ti]",Ti2 Sn1 C1,crystal_system=<CrystalSystem.hex_: 'Hexagonal'> symbol='P6_3/mmc' number=194 point_group='6/mmm' symprec=0.1 version='1.16.2',hex_,6.309506714245065,119.1969176659085,135.39634723496948,91.92363517641624,0.22318421280116194,True,True
1771,LaNi5,"[Element La, Element Ni]",La1 Ni5,crystal_system=<CrystalSystem.hex_: 'Hexagonal'> symbol='P6/mmm' number=191 point_group='6/mmm' symprec=0.1 version='1.16.2',hex_,8.595871425295357,83.52514157488886,135.40892414613225,58.657702462701664,0.31073458365592627,True,True
1772,HfCuSi2,"[Element Cu, Element Hf, Element Si]",Hf1 Cu1 Si2,crystal_system=<CrystalSystem.tet: 'Tetragonal'> symbol='P4/nmm' number=129 point_group='4/mmm' symprec=0.1 version='1.16.2',tet,8.241939060802185,120.16210500478755,135.42255406061855,86.67637167610954,0.23624884655440184,True,True
1773,LiZr2Os,"[Element Li, Element Os, Element Zr]",Li1 Zr2 Os1,crystal_system=<CrystalSystem.cubic: 'Cubic'> symbol='Fm-3m' number=225 point_group='m-3m' symprec=0.1 version='1.16.2',cubic,8.822909594922002,71.44719926479061,135.53420408028063,50.1141999623391,0.3354093873162108,True,False
1774,ZrSbRu,"[Element Ru, Element Sb, Element Zr]",Zr1 Sb1 Ru1,crystal_system=<CrystalSystem.cubic: 'Cubic'> symbol='F-43m' number=216 point_group='-43m' symprec=0.1 version='1.16.2',cubic,8.2765016184293,63.00958545827789,135.57339592498994,46.60296328853197,0.3457955549616179,True,True
1775,Sc2IrPd,"[Element Ir, Element Pd, Element Sc]",Sc2 Ir1 Pd1,crystal_system=<CrystalSystem.cubic: 'Cubic'> symbol='Fm-3m' number=225 point_group='m-3m' symprec=0.1 version='1.16.2',cubic,9.352924140859376,68.9838270701728,135.78489342202226,45.5793319166616,0.3490530716703825,True,False
1776,NiGe,"[Element Ge, Element Ni]",Ni1 Ge1,crystal_system=<CrystalSystem.ortho: 'Orthorhombic'> symbol='Pnma' number=62 point_group='mmm' symprec=0.1 version='1.16.2',ortho,8.219016252367101,106.13642059004104,135.7993007703318,62.05799219981159,0.3017130269570521,True,True
1777,LiHf2Re,"[Element Hf, Element Li, Element Re]",Li1 Hf2 Re1,crystal_system=<CrystalSystem.cubic: 'Cubic'> symbol='Fm-3m' number=225 point_group='m-3m' symprec=0.1 version='1.16.2',cubic,13.073676927924653,69.8739184597196,135.88492080859572,47.907580487823445,0.3422578778743299,True,False
1778,Au,[Element Au],Au1,crystal_system=<CrystalSystem.cubic: 'Cubic'> symbol='Fm-3m' number=225 point_group='m-3m' symprec=0.1 version='1.16.2',cubic,18.02564918288778,18.14473805188449,135.90767015815857,19.43468113295483,0.43175348993545987,True,True
1779,ScPt,"[Element Pt, Element Sc]",Sc1 Pt1,crystal_system=<CrystalSystem.cubic: 'Cubic'> symbol='Pm-3m' number=221 point_group='m-3m' symprec=0.1 version='1.16.2',cubic,11.198748224519804,35.5928755096481,135.97902571019176,40.43227592823877,0.36473559470867156,True,True
1780,MgWO4,"[Element Mg, Element O, Element W]",Mg1 W1 O4,crystal_system=<CrystalSystem.mono: 'Monoclinic'> symbol='P2/c' number=13 point_group='2/m' symprec=0.1 version='1.16.2',mono,6.865742059611087,131.64008058050916,135.99220427793415,70.08380731619033,0.280099530219837,False,True
1781,NaTaN2,"[Element N, Element Na, Element Ta]",Na1 Ta1 N2,crystal_system=<CrystalSystem.trig: 'Trigonal'> symbol='R-3m' number=166 point_group='-3m' symprec=0.1 version='1.16.2',trig,8.088367141260692,47.61947277386672,136.0261654962616,95.56110986483978,0.21538841864510952,False,True
1782,Y(SiNi)2,"[Element Ni, Element Si, Element Y]",Y1 Si2 Ni2,crystal_system=<CrystalSystem.tet: 'Tetragonal'> symbol='I4/mmm' number=139 point_group='4/mmm' symprec=0.1 version='1.16.2',tet,5.895972987794422,73.92013926957725,136.13911131851657,69.89712584500276,0.2808017578828315,True,True
1783,ScCo2Sn,"[Element Co, Element Sc, Element Sn]",Sc1 Co2 Sn1,crystal_system=<CrystalSystem.cubic: 'Cubic'> symbol='Fm-3m' number=225 point_group='m-3m' symprec=0.1 version='1.16.2',cubic,7.899711200017714,59.1787945336256,136.24105926535196,74.13607989146382,0.2696966184934141,True,True
1784,TlAsPd5,"[Element As, Element Pd, Element Tl]",Tl1 As1 Pd5,crystal_system=<CrystalSystem.tet: 'Tetragonal'> symbol='P4/mmm' number=123 point_group='4/mmm' symprec=0.1 version='1.16.2',tet,11.620405473881814,115.9485818553434,136.269461046125,49.077850127972965,0.33922474657774376,True,True
1785,LuAsO4,"[Element As, Element Lu, Element O]",Lu1 As1 O4,crystal_system=<CrystalSystem.tet: 'Tetragonal'> symbol='I4_1/amd' number=141 point_group='4/mmm' symprec=0.1 version='1.16.2',tet,7.019589743914191,148.50449002906637,136.2697386778608,63.21199503168088,0.29912344969935795,False,True