,Formula,Elements,Composition,Symmetry,Crystal system,Density [g/m$^3$],Volume [$\mathring{A}^3$],Bulk modulus[GPa],Shear modulus [GPa],Poisson,Metal,Experimental report
823,ScZn12,"[Element Sc, Element Zn]",Sc1 Zn12,crystal_system=<CrystalSystem.tet: 'Tetragonal'> symbol='I4/mmm' number=139 point_group='4/mmm' symprec=0.1 version='1.16.2',tet,7.194336635597737,191.54253069268736,80.88237220074917,48.27681597530544,0.2510853668126664,True,True
824,Li3YN2,"[Element Li, Element N, Element Y]",Li3 Y1 N2,crystal_system=<CrystalSystem.cubic: 'Cubic'> symbol='Ia-3' number=206 point_group='m-3' symprec=0.1 version='1.16.2',cubic,3.1399139938674865,582.7583499245023,80.90677719355068,44.268850066936736,0.2686209817415847,False,False
825,LiCuO2,"[Element Cu, Element Li, Element O]",Li1 Cu1 O2,crystal_system=<CrystalSystem.mono: 'Monoclinic'> symbol='C2/m' number=12 point_group='2/m' symprec=0.1 version='1.16.2',mono,4.607173182615962,36.93841492954792,80.90753913181061,40.108694778182624,0.2872829507280892,True,True
826,Ca3BN3,"[Element B, Element Ca, Element N]",Ca3 B1 N3,crystal_system=<CrystalSystem.tet: 'Tetragonal'> symbol='P4/mmm' number=123 point_group='4/mmm' symprec=0.1 version='1.16.2',tet,2.7975891823665715,102.72464643001315,80.91642822092282,33.34713447486526,0.318828864682368,False,True
827,ZrSb2,"[Element Sb, Element Zr]",Zr1 Sb2,crystal_system=<CrystalSystem.ortho: 'Orthorhombic'> symbol='Pnnm' number=58 point_group='mmm' symprec=0.1 version='1.16.2',ortho,7.471565512139544,595.1689652261662,81.1050687935462,49.94670320718832,0.24452851747408674,True,True
828,ScCu,"[Element Cu, Element Sc]",Sc1 Cu1,crystal_system=<CrystalSystem.cubic: 'Cubic'> symbol='Pm-3m' number=221 point_group='m-3m' symprec=0.1 version='1.16.2',cubic,5.29300627125541,34.03957117059332,81.1563903562045,42.796835397246305,0.27574964667163365,True,True
829,SrAl2O4,"[Element Al, Element O, Element Sr]",Sr1 Al2 O4,crystal_system=<CrystalSystem.mono: 'Monoclinic'> symbol='P2_1' number=4 point_group='2' symprec=0.1 version='1.16.2',mono,3.555923830251848,384.00681468422346,81.18641550748289,45.294037417464565,0.26479043201624175,False,True
830,Li8SiO6,"[Element Li, Element O, Element Si]",Li8 Si1 O6,crystal_system=<CrystalSystem.hex_: 'Hexagonal'> symbol='P6_3cm' number=185 point_group='6mm' symprec=0.1 version='1.16.2',hex_,2.2619786828632114,263.7065132024989,81.21516688751149,57.646221842912155,0.21300461876178803,False,True
831,NaAlO2,"[Element Al, Element Na, Element O]",Na1 Al1 O2,crystal_system=<CrystalSystem.ortho: 'Orthorhombic'> symbol='Pna2_1' number=33 point_group='mm2' symprec=0.1 version='1.16.2',ortho,2.7858959822640323,195.43380986900937,81.25775431821435,44.66999237491409,0.26770131620579773,False,True
832,Au2O3,"[Element Au, Element O]",Au2 O3,crystal_system=<CrystalSystem.ortho: 'Orthorhombic'> symbol='Fdd2' number=43 point_group='mm2' symprec=0.1 version='1.16.2',ortho,11.064065601797282,132.65363346808084,81.32783280656528,38.1743317970036,0.29705862618971757,False,True
833,Li2SbPt,"[Element Li, Element Pt, Element Sb]",Li2 Sb1 Pt1,crystal_system=<CrystalSystem.cubic: 'Cubic'> symbol='F-43m' number=216 point_group='-43m' symprec=0.1 version='1.16.2',cubic,8.78269132891935,62.530199772821206,81.33136983629504,28.284184148233493,0.34418046825363957,True,True
834,ScZn2,"[Element Sc, Element Zn]",Sc1 Zn2,crystal_system=<CrystalSystem.hex_: 'Hexagonal'> symbol='P6_3/mmc' number=194 point_group='6/mmm' symprec=0.1 version='1.16.2',hex_,5.859495838864961,199.25226046181496,81.40629510691434,48.060329286425045,0.2533505965296598,True,True
835,Li7NbN4,"[Element Li, Element N, Element Nb]",Li7 Nb1 N4,crystal_system=<CrystalSystem.cubic: 'Cubic'> symbol='Pa-3' number=205 point_group='m-3' symprec=0.1 version='1.16.2',cubic,2.819493606487224,930.6351312936738,81.50731578924054,64.39221928513047,0.18732955832278617,False,True
836,Na2ZrO3,"[Element Na, Element O, Element Zr]",Na2 Zr1 O3,crystal_system=<CrystalSystem.mono: 'Monoclinic'> symbol='C2/c' number=15 point_group='2/m' symprec=0.1 version='1.16.2',mono,4.1521059199963855,296.26866752126335,81.69394354166599,51.28065873048393,0.24044964913403588,False,False
837,ZrSnTe,"[Element Sn, Element Te, Element Zr]",Zr1 Sn1 Te1,crystal_system=<CrystalSystem.tet: 'Tetragonal'> symbol='P4/nmm' number=129 point_group='4/mmm' symprec=0.1 version='1.16.2',tet,7.600895591156006,147.4795664758028,81.7614777553766,53.89156280033727,0.22980003321340492,True,True
838,FeSb3,"[Element Fe, Element Sb]",Fe1 Sb3,crystal_system=<CrystalSystem.cubic: 'Cubic'> symbol='Im-3' number=204 point_group='m-3' symprec=0.1 version='1.16.2',cubic,7.270543267589957,384.72751687714106,81.82187884215384,44.36079345370257,0.2704102066015581,True,False
839,LiScAu2,"[Element Au, Element Li, Element Sc]",Li1 Sc1 Au2,crystal_system=<CrystalSystem.cubic: 'Cubic'> symbol='Fm-3m' number=225 point_group='m-3m' symprec=0.1 version='1.16.2',cubic,10.605434069574802,69.8055553627059,81.86717587026982,7.071984856346487,0.45801705853161545,True,False
840,CaSbPt,"[Element Ca, Element Pt, Element Sb]",Ca1 Sb1 Pt1,crystal_system=<CrystalSystem.ortho: 'Orthorhombic'> symbol='Pnma' number=62 point_group='mmm' symprec=0.1 version='1.16.2',ortho,8.828095540402057,268.54395583580765,82.09983938253299,35.018552526152476,0.3132795782957506,True,True
841,ScAg,"[Element Ag, Element Sc]",Sc1 Ag1,crystal_system=<CrystalSystem.cubic: 'Cubic'> symbol='Pm-3m' number=221 point_group='m-3m' symprec=0.1 version='1.16.2',cubic,6.337860969153973,40.04038736878905,82.13750116462273,32.3267310014999,0.32603777831980946,True,True
842,BaAgO2,"[Element Ag, Element Ba, Element O]",Ba1 Ag1 O2,crystal_system=<CrystalSystem.tet: 'Tetragonal'> symbol='P4/mmm' number=123 point_group='4/mmm' symprec=0.1 version='1.16.2',tet,6.7836397495334655,67.85317071985968,82.14656052678302,44.03466309924461,0.27260644232892495,True,False
843,NaHgPd2,"[Element Hg, Element Na, Element Pd]",Na1 Hg1 Pd2,crystal_system=<CrystalSystem.cubic: 'Cubic'> symbol='Fm-3m' number=225 point_group='m-3m' symprec=0.1 version='1.16.2',cubic,10.430563544595987,69.47774904275974,82.20080427605106,17.94898841731652,0.398229672951181,True,False
844,LiSc2Tc,"[Element Li, Element Sc, Element Tc]",Li1 Sc2 Tc1,crystal_system=<CrystalSystem.cubic: 'Cubic'> symbol='Fm-3m' number=225 point_group='m-3m' symprec=0.1 version='1.16.2',cubic,4.545492800600441,71.18276074413603,82.33956549509418,33.135269316313824,0.32258718404268427,True,False
845,Y3SnC,"[Element C, Element Sn, Element Y]",Y3 Sn1 C1,crystal_system=<CrystalSystem.cubic: 'Cubic'> symbol='Pm-3m' number=221 point_group='m-3m' symprec=0.1 version='1.16.2',cubic,5.654759869195107,116.70906562829443,82.36943532826547,62.68043241014313,0.196500753699604,True,True
846,CoO2,"[Element Co, Element O]",Co1 O2,crystal_system=<CrystalSystem.tet: 'Tetragonal'> symbol='I4/m' number=87 point_group='4/m' symprec=0.1 version='1.16.2',tet,4.847912397318181,124.58651702114541,82.4876369986404,35.2226499939338,0.3130998456168166,False,False
847,Y2Pd2Pb,"[Element Pb, Element Pd, Element Y]",Y2 Pd2 Pb1,crystal_system=<CrystalSystem.tet: 'Tetragonal'> symbol='P4/mbm' number=127 point_group='4/mmm' symprec=0.1 version='1.16.2',tet,8.832724708589527,224.79045518486527,82.49297424926924,29.262207580413055,0.34139216560053365,True,True
848,LiNbS2,"[Element Li, Element Nb, Element S]",Li1 Nb1 S2,crystal_system=<CrystalSystem.hex_: 'Hexagonal'> symbol='P6_3/mmc' number=194 point_group='6/mmm' symprec=0.1 version='1.16.2',hex_,4.273826671822952,127.4225028000824,82.54434857181263,56.927544750095684,0.21962453515532218,False,True
849,CaGaPt,"[Element Ca, Element Ga, Element Pt]",Ca1 Ga1 Pt1,crystal_system=<CrystalSystem.ortho: 'Orthorhombic'> symbol='Pnma' number=62 point_group='mmm' symprec=0.1 version='1.16.2',ortho,8.491912049333267,238.4732438956856,82.59522372263132,23.805266044734,0.368523230437747,True,True
850,Ca5P3O12F,"[Element Ca, Element F, Element O, Element P]",Ca5 P3 O12 F1,crystal_system=<CrystalSystem.hex_: 'Hexagonal'> symbol='P6_3/m' number=176 point_group='6/m' symprec=0.1 version='1.16.2',hex_,3.096097585218716,540.9480558353056,82.62459716558755,41.289969569228376,0.2858135676285239,False,True
851,SrAl9Co2,"[Element Al, Element Co, Element Sr]",Sr1 Al9 Co2,crystal_system=<CrystalSystem.hex_: 'Hexagonal'> symbol='P6/mmm' number=191 point_group='6/mmm' symprec=0.1 version='1.16.2',hex_,3.5856407740703076,207.62070588153375,82.69837093952334,59.560690274809545,0.20960718272199289,True,True
852,HfSiSe,"[Element Hf, Element Se, Element Si]",Hf1 Si1 Se1,crystal_system=<CrystalSystem.tet: 'Tetragonal'> symbol='P4/nmm' number=129 point_group='4/mmm' symprec=0.1 version='1.16.2',tet,8.595942102221244,110.317832999048,82.71397696579326,56.118496969288124,0.22333653099699086,True,True
853,SrCu5,"[Element Cu, Element Sr]",Sr1 Cu5,crystal_system=<CrystalSystem.hex_: 'Hexagonal'> symbol='P6/mmm' number=191 point_group='6/mmm' symprec=0.1 version='1.16.2',hex_,7.156253975356174,94.05752129036325,82.76090981317681,29.821618571406447,0.3391523606982567,True,True
854,Li7TaN4,"[Element Li, Element N, Element Ta]",Li7 Ta1 N4,crystal_system=<CrystalSystem.cubic: 'Cubic'> symbol='Pa-3' number=205 point_group='m-3' symprec=0.1 version='1.16.2',cubic,4.09784523805608,925.7281288424068,82.8221950387614,65.62110040547232,0.18661092062652604,False,True
855,LiZn2Au,"[Element Au, Element Li, Element Zn]",Li1 Zn2 Au1,crystal_system=<CrystalSystem.cubic: 'Cubic'> symbol='Fm-3m' number=225 point_group='m-3m' symprec=0.1 version='1.16.2',cubic,9.541651764685232,58.25248055809232,82.87856121127413,13.949787926663625,0.4203128727357047,True,False
856,DyH2,"[Element Dy, Element H]",Dy1 H2,crystal_system=<CrystalSystem.cubic: 'Cubic'> symbol='Fm-3m' number=225 point_group='m-3m' symprec=0.1 version='1.16.2',cubic,7.865927826017418,34.73017447636477,82.89354701881638,49.1544895929978,0.25244110985591145,True,True
857,YTlPd,"[Element Pd, Element Tl, Element Y]",Y1 Tl1 Pd1,crystal_system=<CrystalSystem.hex_: 'Hexagonal'> symbol='P-62m' number=189 point_group='-6m2' symprec=0.1 version='1.16.2',hex_,9.971211085691039,199.69469700775483,82.93429218811565,29.201166006098138,0.3424420429136457,True,True
858,CoSb3,"[Element Co, Element Sb]",Co1 Sb3,crystal_system=<CrystalSystem.cubic: 'Cubic'> symbol='Im-3' number=204 point_group='m-3' symprec=0.1 version='1.16.2',cubic,7.5948344272688315,371.00088993935856,82.93445433170297,57.01436566913219,0.22035124033769526,False,True
859,LiCd2Pt,"[Element Cd, Element Li, Element Pt]",Li1 Cd2 Pt1,crystal_system=<CrystalSystem.cubic: 'Cubic'> symbol='Fm-3m' number=225 point_group='m-3m' symprec=0.1 version='1.16.2',cubic,10.299172933880413,68.82068332199151,82.9946507852919,19.13691953487727,0.3929386619553734,True,False
860,Si,[Element Si],Si1,crystal_system=<CrystalSystem.cubic: 'Cubic'> symbol='Fd-3m' number=227 point_group='m-3m' symprec=0.1 version='1.16.2',cubic,2.312800253345134,40.32952684741405,83.01128367335741,61.161031589445216,0.20424545172250694,False,True
861,ZrIn2,"[Element In, Element Zr]",Zr1 In2,crystal_system=<CrystalSystem.tet: 'Tetragonal'> symbol='I4_1/amd' number=141 point_group='4/mmm' symprec=0.1 version='1.16.2',tet,8.00402210109885,266.26641365027183,83.01998476185268,44.349032101682276,0.2732736513232562,True,True
862,BaZnO2,"[Element Ba, Element O, Element Zn]",Ba1 Zn1 O2,crystal_system=<CrystalSystem.trig: 'Trigonal'> symbol='P3_121' number=152 point_group='32' symprec=0.1 version='1.16.2',trig,5.725287390866139,204.24457974584027,83.06882793834126,32.956262198443554,0.3248018422130543,False,True
863,ScInAg2,"[Element Ag, Element In, Element Sc]",Sc1 In1 Ag2,crystal_system=<CrystalSystem.cubic: 'Cubic'> symbol='Fm-3m' number=225 point_group='m-3m' symprec=0.1 version='1.16.2',cubic,8.118682889462185,76.80427373219663,83.09932640086176,16.098982881964055,0.4090099821291363,True,True
864,TiTeAs,"[Element As, Element Te, Element Ti]",Ti1 Te1 As1,crystal_system=<CrystalSystem.ortho: 'Orthorhombic'> symbol='Immm' number=71 point_group='mmm' symprec=0.1 version='1.16.2',ortho,6.824260951621799,121.8535032815443,83.1947659786837,67.23696912481088,0.18166450875331616,True,True
865,Na3(GePt)4,"[Element Ge, Element Na, Element Pt]",Na3 Ge4 Pt4,crystal_system=<CrystalSystem.cubic: 'Cubic'> symbol='I-43m' number=217 point_group='-43m' symprec=0.1 version='1.16.2',cubic,8.503991924145904,222.57674880382214,83.19687341252336,26.48008816216428,0.35612333712081484,True,True
866,YbF3,"[Element F, Element Yb]",Yb1 F3,crystal_system=<CrystalSystem.ortho: 'Orthorhombic'> symbol='Pnma' number=62 point_group='mmm' symprec=0.1 version='1.16.2',ortho,8.538852247321858,178.93854638561055,83.22404296014415,118.50912414775237,0.01718430865348681,True,True
867,Li7VN4,"[Element Li, Element N, Element V]",Li7 V1 N4,crystal_system=<CrystalSystem.cubic: 'Cubic'> symbol='Pa-3' number=205 point_group='m-3' symprec=0.1 version='1.16.2',cubic,2.4106364036880246,857.2197856848157,83.22745285771678,72.21324101966007,0.16349381083024458,False,True
868,Ca(CoAs)2,"[Element As, Element Ca, Element Co]",Ca1 Co2 As2,crystal_system=<CrystalSystem.tet: 'Tetragonal'> symbol='I4/mmm' number=139 point_group='4/mmm' symprec=0.1 version='1.16.2',tet,6.301647681748817,81.10471153281392,83.22807231522611,46.8951058659447,0.2628200842457373,True,True
869,Ca(GePd)2,"[Element Ca, Element Ge, Element Pd]",Ca1 Ge2 Pd2,crystal_system=<CrystalSystem.tet: 'Tetragonal'> symbol='I4/mmm' number=139 point_group='4/mmm' symprec=0.1 version='1.16.2',tet,7.042894424445923,93.88516927740349,83.27315146815616,25.500960490646083,0.36106573044886153,True,True
870,Al,[Element Al],Al1,crystal_system=<CrystalSystem.cubic: 'Cubic'> symbol='Fm-3m' number=225 point_group='m-3m' symprec=0.1 version='1.16.2',cubic,2.720050205218786,16.471717630914863,83.27702046970407,23.85018708349707,0.3692812137393779,True,True
871,Ca(NiAs)2,"[Element As, Element Ca, Element Ni]",Ca1 Ni2 As2,crystal_system=<CrystalSystem.tet: 'Tetragonal'> symbol='I4/mmm' number=139 point_group='4/mmm' symprec=0.1 version='1.16.2',tet,6.234595276642697,81.84924872196443,83.29367687226633,39.90607121558801,0.2934376428596034,True,True
872,CaSiNi2,"[Element Ca, Element Ni, Element Si]",Ca1 Si1 Ni2,crystal_system=<CrystalSystem.hex_: 'Hexagonal'> symbol='P6_3/mmc' number=194 point_group='6/mmm' symprec=0.1 version='1.16.2',hex_,4.601408170397676,133.92140430033675,83.31060369552975,38.61442106059612,0.2992639475487977,True,True
873,SrTa2Bi2O9,"[Element Bi, Element O, Element Sr, Element Ta]",Sr1 Ta2 Bi2 O9,crystal_system=<CrystalSystem.ortho: 'Orthorhombic'> symbol='Cmc2_1' number=36 point_group='mm2' symprec=0.1 version='1.16.2',ortho,8.761685001105679,383.3936909868967,83.39434413054907,60.797207326107525,0.2067472484041736,False,True
874,Li6MoN4,"[Element Li, Element Mo, Element N]",Li6 Mo1 N4,crystal_system=<CrystalSystem.tet: 'Tetragonal'> symbol='P4_2/nmc' number=137 point_group='4/mmm' symprec=0.1 version='1.16.2',tet,3.0104839926598905,213.58799380942872,83.49811684561041,67.17560131758458,0.18280474313618592,False,True
875,Li6FeN4,"[Element Fe, Element Li, Element N]",Li6 Fe1 N4,crystal_system=<CrystalSystem.tet: 'Tetragonal'> symbol='P4_2/nmc' number=137 point_group='4/mmm' symprec=0.1 version='1.16.2',tet,2.4799372066516057,205.5877089425823,83.54721277864866,69.3276426650433,0.17499547558991005,False,False
876,Ir3Se8,"[Element Ir, Element Se]",Ir3 Se8,crystal_system=<CrystalSystem.trig: 'Trigonal'> symbol='R-3' number=148 point_group='-3' symprec=0.1 version='1.16.2',trig,9.182385356169405,218.5141173078456,83.57523946209719,55.01471347397813,0.23009107853722913,True,True
877,NaFePO4,"[Element Fe, Element Na, Element O, Element P]",Na1 Fe1 P1 O4,crystal_system=<CrystalSystem.ortho: 'Orthorhombic'> symbol='Pnma' number=62 point_group='mmm' symprec=0.1 version='1.16.2',ortho,3.787807932755763,304.77983691752075,83.60793116783422,41.694904333023636,0.28619364518541934,False,True
878,Li6OsN4,"[Element Li, Element N, Element Os]",Li6 Os1 N4,crystal_system=<CrystalSystem.tet: 'Tetragonal'> symbol='P4_2/nmc' number=137 point_group='4/mmm' symprec=0.1 version='1.16.2',tet,4.348326271544855,219.88867298758532,83.66908787783153,64.00662068547872,0.19522000201425602,True,False
879,ScCuS2,"[Element Cu, Element S, Element Sc]",Sc1 Cu1 S2,crystal_system=<CrystalSystem.trig: 'Trigonal'> symbol='P3m1' number=156 point_group='3m' symprec=0.1 version='1.16.2',trig,3.951686754982069,72.54168961050509,83.73840556970833,37.74587272334673,0.30406078480593657,False,True
880,NaUO3,"[Element Na, Element O, Element U]",Na1 U1 O3,crystal_system=<CrystalSystem.ortho: 'Orthorhombic'> symbol='Pnma' number=62 point_group='mmm' symprec=0.1 version='1.16.2',ortho,7.322682820773149,280.2986898886754,83.94788339446633,53.92496254017293,0.23546191321021842,False,True
881,PdPbO2,"[Element O, Element Pb, Element Pd]",Pd1 Pb1 O2,crystal_system=<CrystalSystem.ortho: 'Orthorhombic'> symbol='Imma' number=74 point_group='mmm' symprec=0.1 version='1.16.2',ortho,9.416394550379584,121.89665938079814,83.94944115903215,21.594016017043586,0.38154349437805507,True,True
882,YMgAu2,"[Element Au, Element Mg, Element Y]",Y1 Mg1 Au2,crystal_system=<CrystalSystem.cubic: 'Cubic'> symbol='Fm-3m' number=225 point_group='m-3m' symprec=0.1 version='1.16.2',cubic,10.289685180799363,81.84238775708585,83.97097706194876,18.901335470133176,0.3953083101740137,True,False
883,LiGaCu2,"[Element Cu, Element Ga, Element Li]",Li1 Ga1 Cu2,crystal_system=<CrystalSystem.cubic: 'Cubic'> symbol='Fm-3m' number=225 point_group='m-3m' symprec=0.1 version='1.16.2',cubic,6.858493311987897,49.332234160345365,83.98253774807543,32.895359101847845,0.32677108637659585,True,False
884,Al2ZnS4,"[Element Al, Element S, Element Zn]",Al2 Zn1 S4,crystal_system=<CrystalSystem.cubic: 'Cubic'> symbol='Fd-3m' number=227 point_group='m-3m' symprec=0.1 version='1.16.2',cubic,3.2811219264508176,250.64764281935976,84.06881208687409,44.79160594310855,0.27377827673162075,False,True
885,Y2AlSi2,"[Element Al, Element Si, Element Y]",Y2 Al1 Si2,crystal_system=<CrystalSystem.ortho: 'Orthorhombic'> symbol='Immm' number=71 point_group='mmm' symprec=0.1 version='1.16.2',ortho,4.268597989094742,101.51841759001623,84.14344195046797,47.62568015754092,0.2619160463190937,True,True
886,CaSiPt,"[Element Ca, Element Pt, Element Si]",Ca1 Si1 Pt1,crystal_system=<CrystalSystem.cubic: 'Cubic'> symbol='P2_13' number=198 point_group='23' symprec=0.1 version='1.16.2',cubic,6.823852628438293,256.23809993377637,84.15239691641756,20.206522806139525,0.3888382182799993,True,True
887,HfSb2,"[Element Hf, Element Sb]",Hf1 Sb2,crystal_system=<CrystalSystem.ortho: 'Orthorhombic'> symbol='Pnnm' number=58 point_group='mmm' symprec=0.1 version='1.16.2',ortho,9.63644867893418,581.7612814378606,84.17649977762295,48.58588150159319,0.25797044292315685,True,True
888,ScCuSn,"[Element Cu, Element Sc, Element Sn]",Sc1 Cu1 Sn1,crystal_system=<CrystalSystem.hex_: 'Hexagonal'> symbol='P6_3mc' number=186 point_group='6mm' symprec=0.1 version='1.16.2',hex_,6.567402923261273,114.89907370736518,84.18195955748683,54.6397854280856,0.23319172174876665,True,False
889,SbPdSe,"[Element Pd, Element Sb, Element Se]",Sb1 Pd1 Se1,crystal_system=<CrystalSystem.cubic: 'Cubic'> symbol='P2_13' number=198 point_group='23' symprec=0.1 version='1.16.2',cubic,7.8210181167739155,260.8447960613603,84.28155199580357,31.10281245532532,0.33569419041185505,True,True
890,ScAl3,"[Element Al, Element Sc]",Sc1 Al3,crystal_system=<CrystalSystem.cubic: 'Cubic'> symbol='Pm-3m' number=221 point_group='m-3m' symprec=0.1 version='1.16.2',cubic,3.0605933919066666,68.30791227292657,84.29253598324641,70.51862424703066,0.1729153717963369,True,True
891,Sb2Pd,"[Element Pd, Element Sb]",Sb2 Pd1,crystal_system=<CrystalSystem.cubic: 'Cubic'> symbol='Pa-3' number=205 point_group='m-3' symprec=0.1 version='1.16.2',cubic,8.38111426851684,277.3325943777336,84.4596244480988,28.171678205034155,0.3499114383722055,True,True