,Formula,Elements,Composition,Symmetry,Crystal system,Density [g/m$^3$],Volume [$\mathring{A}^3$],Bulk modulus[GPa],Shear modulus [GPa],Poisson,Metal,Experimental report
2061,TiZnN2,"[Element N, Element Ti, Element Zn]",Ti1 Zn1 N2,crystal_system=<CrystalSystem.ortho: 'Orthorhombic'> symbol='Pna2_1' number=33 point_group='mm2' symprec=0.1 version='1.16.2',ortho,4.876130444541075,192.46127318774413,154.42500214940674,55.23178174565111,0.3402187309696327,False,False
2062,ScSnRh2,"[Element Rh, Element Sc, Element Sn]",Sc1 Sn1 Rh2,crystal_system=<CrystalSystem.cubic: 'Cubic'> symbol='Fm-3m' number=225 point_group='m-3m' symprec=0.1 version='1.16.2',cubic,9.283773157543786,66.08636770537512,154.43045154757738,160.89362494944632,0.11335109732718461,True,False
2063,Be3Nb,"[Element Be, Element Nb]",Be3 Nb1,crystal_system=<CrystalSystem.trig: 'Trigonal'> symbol='R-3m' number=166 point_group='-3m' symprec=0.1 version='1.16.2',trig,4.699340875736425,127.14756365961723,154.5108077119057,125.80995772144132,0.1797872633770391,True,True
2064,SnIr,"[Element Ir, Element Sn]",Sn1 Ir1,crystal_system=<CrystalSystem.hex_: 'Hexagonal'> symbol='P6_3/mmc' number=194 point_group='6/mmm' symprec=0.1 version='1.16.2',hex_,13.24547818100123,77.95965133237802,154.60772069124252,54.84954335920611,0.3413752754347558,True,True
2065,CrPd3,"[Element Cr, Element Pd]",Cr1 Pd3,crystal_system=<CrystalSystem.cubic: 'Cubic'> symbol='Pm-3m' number=221 point_group='m-3m' symprec=0.1 version='1.16.2',cubic,10.465925433692414,58.90403688324943,154.67644081345122,64.53805335866328,0.3168500659132527,True,False
2066,NaBPt3,"[Element B, Element Na, Element Pt]",Na1 B1 Pt3,crystal_system=<CrystalSystem.hex_: 'Hexagonal'> symbol='P6/mmm' number=191 point_group='6/mmm' symprec=0.1 version='1.16.2',hex_,13.888497137887104,148.03060366727956,154.76332179578966,35.908765294122865,0.39231650414666414,True,True
2067,ZnCdPt2,"[Element Cd, Element Pt, Element Zn]",Zn1 Cd1 Pt2,crystal_system=<CrystalSystem.tet: 'Tetragonal'> symbol='P4/mmm' number=123 point_group='4/mmm' symprec=0.1 version='1.16.2',tet,15.07746991024856,62.55467720873418,154.799283690424,56.591983241432246,0.33706404756604597,True,True
2068,Sc2Co3Si,"[Element Co, Element Sc, Element Si]",Sc2 Co3 Si1,crystal_system=<CrystalSystem.hex_: 'Hexagonal'> symbol='P6_3/mmc' number=194 point_group='6/mmm' symprec=0.1 version='1.16.2',hex_,6.129434489893419,159.728204915014,154.85202947256153,78.67129612998374,0.28276694520244594,True,True
2069,HfCuSi,"[Element Cu, Element Hf, Element Si]",Hf1 Cu1 Si1,crystal_system=<CrystalSystem.ortho: 'Orthorhombic'> symbol='Pnma' number=62 point_group='mmm' symprec=0.1 version='1.16.2',ortho,10.017605318206495,179.1036037977578,154.8569335905166,85.12075005588859,0.26772223460295624,True,True
2070,TbMn2O5,"[Element Mn, Element O, Element Tb]",Tb1 Mn2 O5,crystal_system=<CrystalSystem.ortho: 'Orthorhombic'> symbol='Pbam' number=55 point_group='mmm' symprec=0.1 version='1.16.2',ortho,6.601105118070377,350.9675580857557,154.91219672406908,77.9484976762262,0.28454770707280863,False,True
2071,YbFeO3,"[Element Fe, Element O, Element Yb]",Yb1 Fe1 O3,crystal_system=<CrystalSystem.ortho: 'Orthorhombic'> symbol='Pnma' number=62 point_group='mmm' symprec=0.1 version='1.16.2',ortho,9.149854793930306,200.99788721902777,155.09730369018777,76.75058078416953,0.2876072948039137,True,True
2072,MgFeRh2,"[Element Fe, Element Mg, Element Rh]",Mg1 Fe1 Rh2,crystal_system=<CrystalSystem.cubic: 'Cubic'> symbol='Fm-3m' number=225 point_group='m-3m' symprec=0.1 version='1.16.2',cubic,8.553044438635563,55.51817430984301,155.17514833724658,72.78219973561251,0.2971916232869815,True,False
2073,Sc2OsPt,"[Element Os, Element Pt, Element Sc]",Sc2 Os1 Pt1,crystal_system=<CrystalSystem.cubic: 'Cubic'> symbol='Fm-3m' number=225 point_group='m-3m' symprec=0.1 version='1.16.2',cubic,11.634545315401002,67.82654799277621,155.281328348354,70.4835315027756,0.3028717640021864,True,False
2074,Ga2O3,"[Element Ga, Element O]",Ga2 O3,crystal_system=<CrystalSystem.mono: 'Monoclinic'> symbol='C2/m' number=12 point_group='2/m' symprec=0.1 version='1.16.2',mono,5.887587999533202,105.73376293730534,155.3568246858536,69.41668887552927,0.30555083198828337,False,True
2075,Ti2AlN,"[Element Al, Element N, Element Ti]",Ti2 Al1 N1,crystal_system=<CrystalSystem.hex_: 'Hexagonal'> symbol='P6_3/mmc' number=194 point_group='6/mmm' symprec=0.1 version='1.16.2',hex_,4.33339807980478,104.78271983659266,155.36372267736618,114.79381790263952,0.203571737911462,True,True
2076,Y(SiRh)2,"[Element Rh, Element Si, Element Y]",Y1 Si2 Rh2,crystal_system=<CrystalSystem.tet: 'Tetragonal'> symbol='I4/mmm' number=139 point_group='4/mmm' symprec=0.1 version='1.16.2',tet,7.165200234805077,81.3184508215117,155.50722375348772,88.44452376565957,0.26094618584426643,True,True
2077,ScPd3,"[Element Pd, Element Sc]",Sc1 Pd3,crystal_system=<CrystalSystem.cubic: 'Cubic'> symbol='Pm-3m' number=221 point_group='m-3m' symprec=0.1 version='1.16.2',cubic,9.595637044091603,63.028097850547894,155.67426249154602,56.3584832790444,0.3384777414812149,True,True
2078,HfMgRh2,"[Element Hf, Element Mg, Element Rh]",Hf1 Mg1 Rh2,crystal_system=<CrystalSystem.cubic: 'Cubic'> symbol='Fm-3m' number=225 point_group='m-3m' symprec=0.1 version='1.16.2',cubic,10.746800743683183,63.13564771785462,155.8597051325262,71.24476815438378,0.3016658958635976,True,False
2079,ZrVSi,"[Element Si, Element V, Element Zr]",Zr1 V1 Si1,crystal_system=<CrystalSystem.tet: 'Tetragonal'> symbol='P4/nmm' number=129 point_group='4/mmm' symprec=0.1 version='1.16.2',tet,5.771781342171372,97.96228230689013,155.88267083176498,60.13154954419341,0.32910038432003247,True,True
2080,Y2Si4Mo3,"[Element Mo, Element Si, Element Y]",Y2 Si4 Mo3,crystal_system=<CrystalSystem.mono: 'Monoclinic'> symbol='P2_1/c' number=14 point_group='2/m' symprec=0.1 version='1.16.2',mono,6.3581216456752205,301.8966801209809,156.10269428091198,98.46921724844381,0.2393970685683707,True,True
2081,MgMnO3,"[Element Mg, Element Mn, Element O]",Mg1 Mn1 O3,crystal_system=<CrystalSystem.trig: 'Trigonal'> symbol='R-3' number=148 point_group='-3' symprec=0.1 version='1.16.2',trig,4.389989282729596,96.25948702724264,156.3292857329759,87.4762998927197,0.2641996377181414,False,False
2082,ZrRh,"[Element Rh, Element Zr]",Zr1 Rh1,crystal_system=<CrystalSystem.ortho: 'Orthorhombic'> symbol='Pnma' number=62 point_group='mmm' symprec=0.1 version='1.16.2',ortho,8.89288420590516,144.99665632235155,156.34754891798457,47.84407543795385,0.36115698067731417,True,True
2083,YNi4B,"[Element B, Element Ni, Element Y]",Y1 Ni4 B1,crystal_system=<CrystalSystem.hex_: 'Hexagonal'> symbol='P6/mmm' number=191 point_group='6/mmm' symprec=0.1 version='1.16.2',hex_,7.6254418626057925,145.6792851187797,156.3861551138035,74.92630528529438,0.29343392060306045,True,True
2084,Zn2NiRh,"[Element Ni, Element Rh, Element Zn]",Zn2 Ni1 Rh1,crystal_system=<CrystalSystem.cubic: 'Cubic'> symbol='Fm-3m' number=225 point_group='m-3m' symprec=0.1 version='1.16.2',cubic,9.68561696020927,50.13306722523684,156.3878903031733,57.32733094784261,0.33667147943952763,True,False
2085,HfCo2,"[Element Co, Element Hf]",Hf1 Co2,crystal_system=<CrystalSystem.cubic: 'Cubic'> symbol='Fd-3m' number=227 point_group='m-3m' symprec=0.1 version='1.16.2',cubic,12.081836878055878,81.46300404458574,156.48896747387755,74.13400815935243,0.2954363024885661,True,True
2086,TiMn2Al,"[Element Al, Element Mn, Element Ti]",Ti1 Mn2 Al1,crystal_system=<CrystalSystem.cubic: 'Cubic'> symbol='Fm-3m' number=225 point_group='m-3m' symprec=0.1 version='1.16.2',cubic,5.402816789674743,56.77454451901597,156.5063539793515,84.62733867513764,0.27092514203423584,True,False
2087,Ti2Pd3,"[Element Pd, Element Ti]",Ti2 Pd3,crystal_system=<CrystalSystem.ortho: 'Orthorhombic'> symbol='Cmcm' number=63 point_group='mmm' symprec=0.1 version='1.16.2',ortho,8.917104072186108,154.55998804680496,156.59042186362973,43.51396267232916,0.37283689376889284,True,True
2088,SrHfO3,"[Element Hf, Element O, Element Sr]",Sr1 Hf1 O3,crystal_system=<CrystalSystem.ortho: 'Orthorhombic'> symbol='Pnma' number=62 point_group='mmm' symprec=0.1 version='1.16.2',ortho,7.701226052099758,270.9121553948899,156.73357760055012,90.6503432583649,0.25755504323397793,False,True
2089,HfScRh2,"[Element Hf, Element Rh, Element Sc]",Hf1 Sc1 Rh2,crystal_system=<CrystalSystem.cubic: 'Cubic'> symbol='Fm-3m' number=225 point_group='m-3m' symprec=0.1 version='1.16.2',cubic,10.553586659138322,67.54081763917375,156.78635675890146,-3476.4344851491082,-1.2347042266220072,True,False
2090,Ni3TeO6,"[Element Ni, Element O, Element Te]",Ni3 Te1 O6,crystal_system=<CrystalSystem.trig: 'Trigonal'> symbol='R3' number=146 point_group='3' symprec=0.1 version='1.16.2',trig,6.436793477606572,103.10702224869901,156.89774146496956,77.56829645488705,0.28777929827724125,True,True
2091,Sc2IrRu,"[Element Ir, Element Ru, Element Sc]",Sc2 Ir1 Ru1,crystal_system=<CrystalSystem.cubic: 'Cubic'> symbol='Fm-3m' number=225 point_group='m-3m' symprec=0.1 version='1.16.2',cubic,9.65434335653896,65.90988056129116,156.97497418085695,69.41172082495427,0.307309790080972,True,False
2092,MgAlRh2,"[Element Al, Element Mg, Element Rh]",Mg1 Al1 Rh2,crystal_system=<CrystalSystem.cubic: 'Cubic'> symbol='Fm-3m' number=225 point_group='m-3m' symprec=0.1 version='1.16.2',cubic,7.73140168085676,55.219030700354445,157.1191249528784,84.8156349466596,0.2712520201860788,True,False
2093,CoAs,"[Element As, Element Co]",Co1 As1,crystal_system=<CrystalSystem.ortho: 'Orthorhombic'> symbol='Pnma' number=62 point_group='mmm' symprec=0.1 version='1.16.2',ortho,8.421319635896513,105.57543281069007,157.13846016122704,80.49089174674573,0.28123760555902894,True,True
2094,NiGePd,"[Element Ge, Element Ni, Element Pd]",Ni1 Ge1 Pd1,crystal_system=<CrystalSystem.tet: 'Tetragonal'> symbol='P4/nmm' number=129 point_group='4/mmm' symprec=0.1 version='1.16.2',tet,9.749645747350275,80.9873136209638,157.3360427618745,48.94147129908977,0.359080020395146,True,True
2095,TiNiGe,"[Element Ge, Element Ni, Element Ti]",Ti1 Ni1 Ge1,crystal_system=<CrystalSystem.ortho: 'Orthorhombic'> symbol='Pnma' number=62 point_group='mmm' symprec=0.1 version='1.16.2',ortho,7.234596191267853,164.5257079086251,157.38629328397334,83.3623745051693,0.2749076911513166,True,True
2096,MnGaNi2,"[Element Ga, Element Mn, Element Ni]",Mn1 Ga1 Ni2,crystal_system=<CrystalSystem.tet: 'Tetragonal'> symbol='I4/mmm' number=139 point_group='4/mmm' symprec=0.1 version='1.16.2',tet,8.383259341896565,47.94434792207107,157.77298786510738,63.45215494715279,0.3226837675634039,True,True
2097,Zr2Fe3Ge,"[Element Fe, Element Ge, Element Zr]",Zr2 Fe3 Ge1,crystal_system=<CrystalSystem.hex_: 'Hexagonal'> symbol='P6_3/mmc' number=194 point_group='6/mmm' symprec=0.1 version='1.16.2',hex_,7.7824369374427835,180.35019302688727,157.8213140491311,88.07092512451041,0.26474054348828585,True,True
2098,Mg(BC)2,"[Element B, Element C, Element Mg]",Mg1 B2 C2,crystal_system=<CrystalSystem.ortho: 'Orthorhombic'> symbol='Cmce' number=64 point_group='mmm' symprec=0.1 version='1.16.2',ortho,2.4447414896425834,380.087796892242,157.97894470289947,103.79232540978566,0.23051647895972724,False,True
2099,Mn(FeO2)2,"[Element Fe, Element Mn, Element O]",Mn1 Fe2 O4,crystal_system=<CrystalSystem.cubic: 'Cubic'> symbol='Fd-3m' number=227 point_group='m-3m' symprec=0.1 version='1.16.2',cubic,5.494898879602974,139.38851348252413,157.9828746466025,58.946159811547545,0.33407749069171394,False,True
2100,AlPd2,"[Element Al, Element Pd]",Al1 Pd2,crystal_system=<CrystalSystem.ortho: 'Orthorhombic'> symbol='Pnma' number=62 point_group='mmm' symprec=0.1 version='1.16.2',ortho,9.239144648258263,172.41121295032158,158.02704232664018,51.20526981138171,0.35377899525620393,True,True
2101,OsSe2,"[Element Os, Element Se]",Os1 Se2,crystal_system=<CrystalSystem.cubic: 'Cubic'> symbol='Pa-3' number=205 point_group='m-3' symprec=0.1 version='1.16.2',cubic,10.816970779300911,213.78135813884597,158.0678027578227,105.9152957631232,0.22613718099552296,False,True
2102,Nb2InC,"[Element C, Element In, Element Nb]",Nb2 In1 C1,crystal_system=<CrystalSystem.hex_: 'Hexagonal'> symbol='P6_3/mmc' number=194 point_group='6/mmm' symprec=0.1 version='1.16.2',hex_,8.132067195268752,127.68053822056596,158.08174539409782,96.61077994233386,0.24614234444388655,True,True
2103,Ti2AlTc,"[Element Al, Element Tc, Element Ti]",Ti2 Al1 Tc1,crystal_system=<CrystalSystem.cubic: 'Cubic'> symbol='Fm-3m' number=225 point_group='m-3m' symprec=0.1 version='1.16.2',cubic,5.965755555599332,61.43509753881296,158.25768489360388,59.677483979261254,0.3325079319906402,True,False
2104,Ti3SnC2,"[Element C, Element Sn, Element Ti]",Ti3 Sn1 C2,crystal_system=<CrystalSystem.hex_: 'Hexagonal'> symbol='P6_3/mmc' number=194 point_group='6/mmm' symprec=0.1 version='1.16.2',hex_,5.9618461897324995,159.5029865252768,158.2633942936131,111.8017462362833,0.21410684151956616,True,True
2105,LiZrIr2,"[Element Ir, Element Li, Element Zr]",Li1 Zr1 Ir2,crystal_system=<CrystalSystem.cubic: 'Cubic'> symbol='Fm-3m' number=225 point_group='m-3m' symprec=0.1 version='1.16.2',cubic,13.095759973147793,61.19343166378065,158.27719827288973,49.47367720366665,0.3584593370208596,True,False
2106,Be2Fe,"[Element Be, Element Fe]",Be2 Fe1,crystal_system=<CrystalSystem.hex_: 'Hexagonal'> symbol='P6_3/mmc' number=194 point_group='6/mmm' symprec=0.1 version='1.16.2',hex_,4.74995877557366,103.2960246961987,158.35765857548859,146.04660731086153,0.14729833521747632,True,True
2107,Sc(CoSi)2,"[Element Co, Element Sc, Element Si]",Sc1 Co2 Si2,crystal_system=<CrystalSystem.tet: 'Tetragonal'> symbol='I4/mmm' number=139 point_group='4/mmm' symprec=0.1 version='1.16.2',tet,5.424031383318279,67.04366320835376,158.50276867334168,90.45385903587784,0.2602652669539935,True,True
2108,LiSi2N3,"[Element Li, Element N, Element Si]",Li1 Si2 N3,crystal_system=<CrystalSystem.ortho: 'Orthorhombic'> symbol='Cmc2_1' number=36 point_group='mm2' symprec=0.1 version='1.16.2',ortho,3.0077248213777104,116.08506068299963,158.5049343032294,121.32566591178639,0.1950801623304208,False,True
2109,Ti3AlC2,"[Element Al, Element C, Element Ti]",Ti3 Al1 C2,crystal_system=<CrystalSystem.hex_: 'Hexagonal'> symbol='P6_3/mmc' number=194 point_group='6/mmm' symprec=0.1 version='1.16.2',hex_,4.247187770465413,152.1700758354353,158.52143845478707,125.86679991130961,0.18608175554664091,True,True
2110,MnFeAs,"[Element As, Element Fe, Element Mn]",Mn1 Fe1 As1,crystal_system=<CrystalSystem.hex_: 'Hexagonal'> symbol='P-62m' number=189 point_group='-6m2' symprec=0.1 version='1.16.2',hex_,7.862897997558442,117.65502412749277,158.60114013233772,71.52069297466888,0.30398992691712473,True,True
2111,Ti2GaN,"[Element Ga, Element N, Element Ti]",Ti2 Ga1 N1,crystal_system=<CrystalSystem.hex_: 'Hexagonal'> symbol='P6_3/mmc' number=194 point_group='6/mmm' symprec=0.1 version='1.16.2',hex_,5.759187610696941,103.48906999767611,158.60807045810122,109.06482585687135,0.22029354566164341,True,True
2112,Zn2PdRh,"[Element Pd, Element Rh, Element Zn]",Zn2 Pd1 Rh1,crystal_system=<CrystalSystem.cubic: 'Cubic'> symbol='Fm-3m' number=225 point_group='m-3m' symprec=0.1 version='1.16.2',cubic,10.382419084577794,54.401730983779274,158.90381890262125,65.46447484748985,0.3188840438019161,True,False
2113,Sc2Si2O7,"[Element O, Element Sc, Element Si]",Sc2 Si2 O7,crystal_system=<CrystalSystem.mono: 'Monoclinic'> symbol='C2/m' number=12 point_group='2/m' symprec=0.1 version='1.16.2',mono,3.3733343535841622,127.0403679229244,158.9482731158942,71.56560069695736,0.3042553585384136,False,True
2114,BaHfO3,"[Element Ba, Element Hf, Element O]",Ba1 Hf1 O3,crystal_system=<CrystalSystem.cubic: 'Cubic'> symbol='Pm-3m' number=221 point_group='m-3m' symprec=0.1 version='1.16.2',cubic,8.332451498508037,72.50319461578196,159.02154431001915,102.61877387688327,0.23446167510088908,False,True
2115,TiInCo2,"[Element Co, Element In, Element Ti]",Ti1 In1 Co2,crystal_system=<CrystalSystem.cubic: 'Cubic'> symbol='Fm-3m' number=225 point_group='m-3m' symprec=0.1 version='1.16.2',cubic,8.38196477192175,55.5796350808478,159.03642155194308,68.1423426167988,0.31253881224399394,True,False
2116,TiMnO3,"[Element Mn, Element O, Element Ti]",Ti1 Mn1 O3,crystal_system=<CrystalSystem.trig: 'Trigonal'> symbol='R-3' number=148 point_group='-3' symprec=0.1 version='1.16.2',trig,4.644506556173096,107.83263051258717,159.11672777076893,64.4771173854287,0.321500917444363,False,True
2117,Hf2SeN2,"[Element Hf, Element N, Element Se]",Hf2 Se1 N2,crystal_system=<CrystalSystem.trig: 'Trigonal'> symbol='P-3m1' number=164 point_group='-3m' symprec=0.1 version='1.16.2',trig,10.366966305393985,74.31419405511588,159.1310374982674,81.63158179447724,0.28096249782419663,False,False
2118,YBPt2,"[Element B, Element Pt, Element Y]",Y1 B1 Pt2,crystal_system=<CrystalSystem.hex_: 'Hexagonal'> symbol='P6_222' number=180 point_group='622' symprec=0.1 version='1.16.2',hex_,12.47202578796251,195.67140384177486,159.1699479099228,51.3208958970843,0.35443103420965066,True,True
2119,MgB4,"[Element B, Element Mg]",Mg1 B4,crystal_system=<CrystalSystem.ortho: 'Orthorhombic'> symbol='Pnma' number=62 point_group='mmm' symprec=0.1 version='1.16.2',ortho,2.5275452685200044,177.51255307952263,159.22017275271293,113.0070268129677,0.21301869954773744,False,True
2120,FeP,"[Element Fe, Element P]",Fe1 P1,crystal_system=<CrystalSystem.ortho: 'Orthorhombic'> symbol='Pnma' number=62 point_group='mmm' symprec=0.1 version='1.16.2',ortho,6.366076368783321,90.58386212379064,159.22917121474967,118.58742260649795,0.20167933767562565,True,True
2121,Zr2SN2,"[Element N, Element S, Element Zr]",Zr2 S1 N2,crystal_system=<CrystalSystem.hex_: 'Hexagonal'> symbol='P6_3/mmc' number=194 point_group='6/mmm' symprec=0.1 version='1.16.2',hex_,5.5174556550508225,145.98198411008295,159.26746273093204,68.486664003892,0.3119493780943451,False,True
2122,Cu2O3,"[Element Cu, Element O]",Cu2 O3,crystal_system=<CrystalSystem.cubic: 'Cubic'> symbol='Ia-3' number=206 point_group='m-3' symprec=0.1 version='1.16.2',cubic,5.9792570368966365,389.0036711714401,159.26943807835443,55.56591404700691,0.3437328489999107,True,False
2123,Cu3Pt,"[Element Cu, Element Pt]",Cu3 Pt1,crystal_system=<CrystalSystem.cubic: 'Cubic'> symbol='Pm-3m' number=221 point_group='m-3m' symprec=0.1 version='1.16.2',cubic,12.819935631579229,49.96175240297865,159.3213528393323,51.78512073986887,0.35336894486816717,True,True
2124,AlV3,"[Element Al, Element V]",Al1 V3,crystal_system=<CrystalSystem.cubic: 'Cubic'> symbol='Pm-3n' number=223 point_group='m-3m' symprec=0.1 version='1.16.2',cubic,5.4349787909629566,109.87161605942043,159.32999491114006,10.57821137082731,0.46752282039075804,True,True
2125,PdO,"[Element O, Element Pd]",Pd1 O1,crystal_system=<CrystalSystem.tet: 'Tetragonal'> symbol='P4_2/mmc' number=131 point_group='4/mmm' symprec=0.1 version='1.16.2',tet,8.117605863761803,50.08427352138736,159.37475873293934,33.898220350404635,0.400693170967501,True,True
2126,YN,"[Element N, Element Y]",Y1 N1,crystal_system=<CrystalSystem.cubic: 'Cubic'> symbol='Fm-3m' number=225 point_group='m-3m' symprec=0.1 version='1.16.2',cubic,5.821847704574437,29.3532772394838,159.54583220417183,120.84537160645206,0.1976259589398842,False,True
2127,HfInCo2,"[Element Co, Element Hf, Element In]",Hf1 In1 Co2,crystal_system=<CrystalSystem.cubic: 'Cubic'> symbol='Fm-3m' number=225 point_group='m-3m' symprec=0.1 version='1.16.2',cubic,11.43159728191146,59.726661195526226,159.55952288039487,76.12517354631862,0.29418350736198406,True,False
2128,OsPbO3,"[Element O, Element Os, Element Pb]",Os1 Pb1 O3,crystal_system=<CrystalSystem.cubic: 'Cubic'> symbol='Fd-3m' number=227 point_group='m-3m' symprec=0.1 version='1.16.2',cubic,10.713008599289092,276.1692649119691,159.70793625562578,73.21868269743021,0.3011595599770321,True,True