,Formula,Elements,Composition,Symmetry,Crystal system,Density [g/m$^3$],Volume [$\mathring{A}^3$],Bulk modulus[GPa],Shear modulus [GPa],Poisson,Metal,Experimental report
274,BaPdF4,"[Element Ba, Element F, Element Pd]",Ba1 Pd1 F4,crystal_system=<CrystalSystem.tet: 'Tetragonal'> symbol='I4/mcm' number=140 point_group='4/mmm' symprec=0.1 version='1.16.2',tet,5.068183307562875,209.51956411708264,53.40968650249576,14.98732975166107,0.37169582296184756,False,True
275,Li2SbAu,"[Element Au, Element Li, Element Sb]",Li2 Sb1 Au1,crystal_system=<CrystalSystem.cubic: 'Cubic'> symbol='F-43m' number=216 point_group='-43m' symprec=0.1 version='1.16.2',cubic,7.875634657181485,70.12889078174697,53.49234464861986,19.687976309787835,0.3360837966108014,True,True
276,SrSi2,"[Element Si, Element Sr]",Sr1 Si2,crystal_system=<CrystalSystem.tet: 'Tetragonal'> symbol='I4_1/amd' number=141 point_group='4/mmm' symprec=0.1 version='1.16.2',tet,3.498584632807533,136.49552489680534,53.513303934793,39.1990938663781,0.20562264189655177,True,True
277,Yb4Sb2O,"[Element O, Element Sb, Element Yb]",Yb4 Sb2 O1,crystal_system=<CrystalSystem.tet: 'Tetragonal'> symbol='I4/mmm' number=139 point_group='4/mmm' symprec=0.1 version='1.16.2',tet,9.29521682520322,170.0122603158209,53.5444484235245,36.10154395809258,0.2247447255062252,False,False
278,K2PdO2,"[Element K, Element O, Element Pd]",K2 Pd1 O2,crystal_system=<CrystalSystem.ortho: 'Orthorhombic'> symbol='Immm' number=71 point_group='mmm' symprec=0.1 version='1.16.2',ortho,4.455404544843594,80.73303568886419,53.597331191146644,18.243896734921144,0.3471488311352078,False,True
279,MnCu2SnSe4,"[Element Cu, Element Mn, Element Se, Element Sn]",Mn1 Cu2 Sn1 Se4,crystal_system=<CrystalSystem.tet: 'Tetragonal'> symbol='I-42m' number=121 point_group='-42m' symprec=0.1 version='1.16.2',tet,5.310777266438359,192.7882117894069,53.60673431087907,19.5572821476145,0.3373637197105287,True,True
280,KBaPO4,"[Element Ba, Element K, Element O, Element P]",K1 Ba1 P1 O4,crystal_system=<CrystalSystem.ortho: 'Orthorhombic'> symbol='Pnma' number=62 point_group='mmm' symprec=0.1 version='1.16.2',ortho,3.947426512033127,456.66690277531745,53.611890857381184,26.121218659837787,0.2904231947185153,False,True
281,MnSb,"[Element Mn, Element Sb]",Mn1 Sb1,crystal_system=<CrystalSystem.hex_: 'Hexagonal'> symbol='P6_3/mmc' number=194 point_group='6/mmm' symprec=0.1 version='1.16.2',hex_,6.785778951485866,86.47909364925499,53.66136262855262,40.01740653728304,0.20136485811583302,True,True
282,SrLiN,"[Element Li, Element N, Element Sr]",Sr1 Li1 N1,crystal_system=<CrystalSystem.tet: 'Tetragonal'> symbol='P4_2/mmc' number=131 point_group='4/mmm' symprec=0.1 version='1.16.2',tet,3.321404051387783,108.55704661742793,53.697524204047895,28.202240242767395,0.2765212911746537,False,True
283,Sr(NiAs)2,"[Element As, Element Ni, Element Sr]",Sr1 Ni2 As2,crystal_system=<CrystalSystem.tet: 'Tetragonal'> symbol='I4/mmm' number=139 point_group='4/mmm' symprec=0.1 version='1.16.2',tet,6.462424576260437,91.17975472357193,53.840752488934385,27.026825742576627,0.2849884076665286,True,True
284,YMgTl,"[Element Mg, Element Tl, Element Y]",Y1 Mg1 Tl1,crystal_system=<CrystalSystem.hex_: 'Hexagonal'> symbol='P-62m' number=189 point_group='-6m2' symprec=0.1 version='1.16.2',hex_,6.957242334265567,227.407987846506,53.908343665731785,39.04650345749651,0.20827659735069562,True,True
285,YMgIn,"[Element In, Element Mg, Element Y]",Y1 Mg1 In1,crystal_system=<CrystalSystem.hex_: 'Hexagonal'> symbol='P-62m' number=189 point_group='-6m2' symprec=0.1 version='1.16.2',hex_,4.975758297852598,228.29735152144755,53.937639338591524,39.83428308691272,0.20368334247326783,True,True
286,PNO,"[Element N, Element O, Element P]",P1 N1 O1,crystal_system=<CrystalSystem.ortho: 'Orthorhombic'> symbol='I2_12_12_1' number=24 point_group='222' symprec=0.1 version='1.16.2',ortho,2.72167824391676,74.40956208045709,53.949908809885756,55.745182055882836,0.11571815413419508,False,False
287,Tl2Pd,"[Element Pd, Element Tl]",Tl2 Pd1,crystal_system=<CrystalSystem.tet: 'Tetragonal'> symbol='I4/mcm' number=140 point_group='4/mmm' symprec=0.1 version='1.16.2',tet,12.613855061699201,135.64250924151423,54.09395869191186,13.90503331918274,0.3816169143870816,True,True
288,Sr(ZnAs)2,"[Element As, Element Sr, Element Zn]",Sr1 Zn2 As2,crystal_system=<CrystalSystem.trig: 'Trigonal'> symbol='P-3m1' number=164 point_group='-3m' symprec=0.1 version='1.16.2',trig,5.464223645275716,111.91806188662511,54.15560384336494,33.32771829934146,0.24467326797862196,False,True
289,YCo,"[Element Co, Element Y]",Y1 Co1,crystal_system=<CrystalSystem.trig: 'Trigonal'> symbol='R-3m' number=166 point_group='-3m' symprec=0.1 version='1.16.2',trig,5.363247054414503,91.54622462870503,54.21171779390727,22.275780181557188,0.31929856916275223,True,True
290,Ni(SbO2)2,"[Element Ni, Element O, Element Sb]",Ni1 Sb2 O4,crystal_system=<CrystalSystem.tet: 'Tetragonal'> symbol='P4_2/mbc' number=135 point_group='4/mmm' symprec=0.1 version='1.16.2',tet,5.830246661630062,417.2088814840183,54.26864432453188,16.77497423851561,0.3598823129451458,False,True
291,LiCoAs,"[Element As, Element Co, Element Li]",Li1 Co1 As1,crystal_system=<CrystalSystem.tet: 'Tetragonal'> symbol='P4/nmm' number=129 point_group='4/mmm' symprec=0.1 version='1.16.2',tet,5.555564074169184,84.16676142664001,54.31116436083511,29.604445109126072,0.2693614667282272,True,True
292,BaF2,"[Element Ba, Element F]",Ba1 F2,crystal_system=<CrystalSystem.cubic: 'Cubic'> symbol='Fm-3m' number=225 point_group='m-3m' symprec=0.1 version='1.16.2',cubic,4.825907156361877,60.32690236247557,54.42955274374926,24.028990438867197,0.3075809411756126,False,True
293,BiF3,"[Element Bi, Element F]",Bi1 F3,crystal_system=<CrystalSystem.ortho: 'Orthorhombic'> symbol='Pnma' number=62 point_group='mmm' symprec=0.1 version='1.16.2',ortho,8.16550500323912,216.35545643697458,54.457601455945124,31.04769928027222,0.26045968379600154,False,True
294,Bi2O3,"[Element Bi, Element O]",Bi2 O3,crystal_system=<CrystalSystem.mono: 'Monoclinic'> symbol='P2_1/c' number=14 point_group='2/m' symprec=0.1 version='1.16.2',mono,9.438175801265304,327.9206233179676,54.48642573645523,29.884460666421262,0.2681502825375671,False,True
295,PtPbF6,"[Element F, Element Pb, Element Pt]",Pt1 Pb1 F6,crystal_system=<CrystalSystem.trig: 'Trigonal'> symbol='R-3m' number=166 point_group='-3m' symprec=0.1 version='1.16.2',trig,7.879112950699922,108.80588303936797,54.56178870064107,10.320597840552452,0.4110323783732695,False,True
296,Y2Al,"[Element Al, Element Y]",Y2 Al1,crystal_system=<CrystalSystem.ortho: 'Orthorhombic'> symbol='Pnma' number=62 point_group='mmm' symprec=0.1 version='1.16.2',ortho,4.241658544504547,320.6926438823538,54.618769394597074,29.655859590904832,0.2701240707605054,True,True
297,YMgZn,"[Element Mg, Element Y, Element Zn]",Y1 Mg1 Zn1,crystal_system=<CrystalSystem.hex_: 'Hexagonal'> symbol='P-62m' number=189 point_group='-6m2' symprec=0.1 version='1.16.2',hex_,4.378311969329418,203.23259813804003,54.62099694166453,27.538462602250426,0.2841829664105575,True,True
298,Ca3GeN,"[Element Ca, Element Ge, Element N]",Ca3 Ge1 N1,crystal_system=<CrystalSystem.cubic: 'Cubic'> symbol='Pm-3m' number=221 point_group='m-3m' symprec=0.1 version='1.16.2',cubic,3.09820687850241,110.88138976749332,54.6325784157604,35.70192167151711,0.2316985242661905,True,True
299,BaSb2Pd,"[Element Ba, Element Pd, Element Sb]",Ba1 Sb2 Pd1,crystal_system=<CrystalSystem.ortho: 'Orthorhombic'> symbol='Cmcm' number=63 point_group='mmm' symprec=0.1 version='1.16.2',ortho,7.078010919687653,228.63086778077144,54.66715005851731,23.68674626561161,0.31069603697984605,True,True
300,MgSc2Tl,"[Element Mg, Element Sc, Element Tl]",Mg1 Sc2 Tl1,crystal_system=<CrystalSystem.cubic: 'Cubic'> symbol='Fm-3m' number=225 point_group='m-3m' symprec=0.1 version='1.16.2',cubic,5.841952426229905,90.56012680798644,54.70856217849902,23.427066627000457,0.3126361818317083,True,False
301,CaZnSi,"[Element Ca, Element Si, Element Zn]",Ca1 Zn1 Si1,crystal_system=<CrystalSystem.hex_: 'Hexagonal'> symbol='P6_3/mmc' number=194 point_group='6/mmm' symprec=0.1 version='1.16.2',hex_,3.498952170809675,126.78215856954817,54.7335574637965,42.37417085499048,0.19230882481330616,True,True
302,LiZnAs,"[Element As, Element Li, Element Zn]",Li1 Zn1 As1,crystal_system=<CrystalSystem.cubic: 'Cubic'> symbol='F-43m' number=216 point_group='-43m' symprec=0.1 version='1.16.2',cubic,4.75100204634274,51.4734034663151,54.738221205061464,40.055683463574155,0.20586271549146878,False,True
303,Li2CO3,"[Element C, Element Li, Element O]",Li2 C1 O3,crystal_system=<CrystalSystem.mono: 'Monoclinic'> symbol='C2/c' number=15 point_group='2/m' symprec=0.1 version='1.16.2',mono,2.144170057065297,114.44868909714222,54.82072851038362,26.636136953050077,0.2909233063368291,False,True
304,Y2MgAl,"[Element Al, Element Mg, Element Y]",Y2 Mg1 Al1,crystal_system=<CrystalSystem.cubic: 'Cubic'> symbol='Fm-3m' number=225 point_group='m-3m' symprec=0.1 version='1.16.2',cubic,3.8142618854423707,99.73792747071086,54.958089902613885,35.98268269089961,0.2312812755955783,True,False
305,BaSn3Pd,"[Element Ba, Element Pd, Element Sn]",Ba1 Sn3 Pd1,crystal_system=<CrystalSystem.tet: 'Tetragonal'> symbol='I4mm' number=107 point_group='4mm' symprec=0.1 version='1.16.2',tet,7.253140734671712,137.33625612600136,55.02000812819475,25.020611919872323,0.3025526502357961,True,True
306,BeTe,"[Element Be, Element Te]",Be1 Te1,crystal_system=<CrystalSystem.cubic: 'Cubic'> symbol='F-43m' number=216 point_group='-43m' symprec=0.1 version='1.16.2',cubic,4.996636953414623,45.40050984281411,55.06178057767885,40.20454417500561,0.20637884141233137,False,True
307,Bi2Pd,"[Element Bi, Element Pd]",Bi2 Pd1,crystal_system=<CrystalSystem.mono: 'Monoclinic'> symbol='C2/m' number=12 point_group='2/m' symprec=0.1 version='1.16.2',mono,11.332408044406206,153.67515902408311,55.084367594797115,18.96625821569819,0.3455678753356795,True,True
308,LiMgP,"[Element Li, Element Mg, Element P]",Li1 Mg1 P1,crystal_system=<CrystalSystem.cubic: 'Cubic'> symbol='F-43m' number=216 point_group='-43m' symprec=0.1 version='1.16.2',cubic,1.935035990512237,53.39350070083401,55.12535761878577,42.93056018857472,0.19086034687636763,False,False
309,RbVN2,"[Element N, Element Rb, Element V]",Rb1 V1 N2,crystal_system=<CrystalSystem.tet: 'Tetragonal'> symbol='I-42d' number=122 point_group='-42m' symprec=0.1 version='1.16.2',tet,3.985198980744565,137.02217535689564,55.14606912525727,35.61290675840984,0.23429960650721568,False,False
310,V4GeSe8,"[Element Ge, Element Se, Element V]",V4 Ge1 Se8,crystal_system=<CrystalSystem.cubic: 'Cubic'> symbol='F-43m' number=216 point_group='-43m' symprec=0.1 version='1.16.2',cubic,5.606234893851462,268.970584961808,55.16449253663524,35.64449273450043,0.2341787877733867,True,True
311,Eu(CdP)2,"[Element Cd, Element Eu, Element P]",Eu1 Cd2 P2,crystal_system=<CrystalSystem.trig: 'Trigonal'> symbol='P-3m1' number=164 point_group='-3m' symprec=0.1 version='1.16.2',trig,6.262464395689778,116.33346082262945,55.17988431671144,34.87828797994263,0.23895834012102352,True,True
312,LiBeB,"[Element B, Element Be, Element Li]",Li1 Be1 B1,crystal_system=<CrystalSystem.mono: 'Monoclinic'> symbol='P2_1/m' number=11 point_group='2/m' symprec=0.1 version='1.16.2',mono,1.4086950074119569,63.098072418447465,55.27380185246892,60.00460969317086,0.1014324813733963,True,True
313,SrSn3Pd,"[Element Pd, Element Sn, Element Sr]",Sr1 Sn3 Pd1,crystal_system=<CrystalSystem.tet: 'Tetragonal'> symbol='I4mm' number=107 point_group='4mm' symprec=0.1 version='1.16.2',tet,6.927141914522925,131.883941392334,55.27781489716688,16.78114089244569,0.36215936006328847,True,True
314,Ba(ZnP)2,"[Element Ba, Element P, Element Zn]",Ba1 Zn2 P2,crystal_system=<CrystalSystem.tet: 'Tetragonal'> symbol='I4/mmm' number=139 point_group='4/mmm' symprec=0.1 version='1.16.2',tet,5.113323286419749,107.19672920942755,55.39597771019815,29.09678034724063,0.2765049309616613,True,True
315,BaNiSn3,"[Element Ba, Element Ni, Element Sn]",Ba1 Ni1 Sn3,crystal_system=<CrystalSystem.tet: 'Tetragonal'> symbol='I4mm' number=107 point_group='4mm' symprec=0.1 version='1.16.2',tet,7.115072161549863,128.8626860024842,55.54815518979201,31.511367579513582,0.2614652537946989,True,True
316,Y3Pt,"[Element Pt, Element Y]",Y3 Pt1,crystal_system=<CrystalSystem.ortho: 'Orthorhombic'> symbol='Pnma' number=62 point_group='mmm' symprec=0.1 version='1.16.2',ortho,6.835395372206588,448.7462527241544,55.59463721760247,19.121184765436517,0.34571817717343617,True,True
317,YCd2,"[Element Cd, Element Y]",Y1 Cd2,crystal_system=<CrystalSystem.hex_: 'Hexagonal'> symbol='P6/mmm' number=191 point_group='6/mmm' symprec=0.1 version='1.16.2',hex_,7.1093693221931025,73.27757605434395,55.70378851595066,31.593336575826456,0.26150536772782035,True,False
318,YCd3,"[Element Cd, Element Y]",Y1 Cd3,crystal_system=<CrystalSystem.ortho: 'Orthorhombic'> symbol='Cmcm' number=63 point_group='mmm' symprec=0.1 version='1.16.2',ortho,7.59966123267487,186.22414514441053,55.81128468193101,23.692407092250875,0.314056893978018,True,True
319,PbCO3,"[Element C, Element O, Element Pb]",Pb1 C1 O3,crystal_system=<CrystalSystem.ortho: 'Orthorhombic'> symbol='Pnma' number=62 point_group='mmm' symprec=0.1 version='1.16.2',ortho,6.604025394102395,268.75173301996114,55.82821789952485,21.05614756162224,0.3324807090490436,False,True
320,Sc2S3,"[Element S, Element Sc]",Sc2 S3,crystal_system=<CrystalSystem.ortho: 'Orthorhombic'> symbol='Fddd' number=70 point_group='mmm' symprec=0.1 version='1.16.2',ortho,2.883972633977312,428.6277174366303,55.903222898854516,37.16694735461232,0.2278829467878723,False,True
321,MnS,"[Element Mn, Element S]",Mn1 S1,crystal_system=<CrystalSystem.cubic: 'Cubic'> symbol='Fm-3m' number=225 point_group='-3m' symprec=0.1 version='1.16.2',cubic,4.19181053250963,68.93057499388583,55.92382439056861,39.34433698182314,0.21505552652408585,True,True
322,BaMoO4,"[Element Ba, Element Mo, Element O]",Ba1 Mo1 O4,crystal_system=<CrystalSystem.tet: 'Tetragonal'> symbol='I4_1/a' number=88 point_group='4/m' symprec=0.1 version='1.16.2',tet,4.867937883926004,202.80434680449002,55.92695994721731,23.092885767845512,0.3185223174009373,False,True
323,SrAgP,"[Element Ag, Element P, Element Sr]",Sr1 Ag1 P1,crystal_system=<CrystalSystem.hex_: 'Hexagonal'> symbol='P6_3/mmc' number=194 point_group='6/mmm' symprec=0.1 version='1.16.2',hex_,5.369184930181552,140.07673041247585,55.94812668976756,34.779403444714745,0.24253217335928837,False,True
324,La2Si4CN6,"[Element C, Element La, Element N, Element Si]",La2 Si4 C1 N6,crystal_system=<CrystalSystem.ortho: 'Orthorhombic'> symbol='Pnma' number=62 point_group='mmm' symprec=0.1 version='1.16.2',ortho,4.934478096096375,654.4647315708074,55.957137475627086,69.6378291062571,0.060199245363631984,False,True
325,Mg2Cu,"[Element Cu, Element Mg]",Mg2 Cu1,crystal_system=<CrystalSystem.ortho: 'Orthorhombic'> symbol='Fddd' number=70 point_group='mmm' symprec=0.1 version='1.16.2',ortho,3.5153112427988127,211.9179858513011,56.06828353001535,27.06492027489005,0.2920959284557393,True,True
326,Ca3MoN3,"[Element Ca, Element Mo, Element N]",Ca3 Mo1 N3,crystal_system=<CrystalSystem.hex_: 'Hexagonal'> symbol='P6_3/m' number=176 point_group='6/m' symprec=0.1 version='1.16.2',hex_,3.4595966916369734,247.856283856463,56.09939236389741,23.187981841306673,0.3183577708395611,True,False
327,BaSi2O5,"[Element Ba, Element O, Element Si]",Ba1 Si2 O5,crystal_system=<CrystalSystem.ortho: 'Orthorhombic'> symbol='Pnma' number=62 point_group='mmm' symprec=0.1 version='1.16.2',ortho,3.7304985233200414,486.9581147729143,56.13687508276483,33.2536512936894,0.2526558605428085,False,True
328,CaAlSi,"[Element Al, Element Ca, Element Si]",Ca1 Al1 Si1,crystal_system=<CrystalSystem.hex_: 'Hexagonal'> symbol='P6_3/mmc' number=194 point_group='6/mmm' symprec=0.1 version='1.16.2',hex_,2.3623594977921503,401.2735243796473,56.14412279317115,39.46127155916976,0.2152779307908944,True,True
329,ScIn3,"[Element In, Element Sc]",Sc1 In3,crystal_system=<CrystalSystem.cubic: 'Cubic'> symbol='Pm-3m' number=221 point_group='m-3m' symprec=0.1 version='1.16.2',cubic,7.116489572578181,90.86367164632901,56.34901181459193,21.011572875330366,0.3341703141376355,True,True
330,NaAgO2,"[Element Ag, Element Na, Element O]",Na1 Ag1 O2,crystal_system=<CrystalSystem.mono: 'Monoclinic'> symbol='C2/m' number=12 point_group='2/m' symprec=0.1 version='1.16.2',mono,5.271264458465234,51.30268643900297,56.391390253979466,26.179440839277902,0.2989842064497959,False,False
331,SrNiSn3,"[Element Ni, Element Sn, Element Sr]",Sr1 Ni1 Sn3,crystal_system=<CrystalSystem.tet: 'Tetragonal'> symbol='I4mm' number=107 point_group='4mm' symprec=0.1 version='1.16.2',tet,6.7883035554449025,122.90653881942511,56.39793855862348,25.553733970318703,0.3031780064749682,True,True
332,Sn4Pd,"[Element Pd, Element Sn]",Sn4 Pd1,crystal_system=<CrystalSystem.ortho: 'Orthorhombic'> symbol='Ccce' number=68 point_group='mmm' symprec=0.1 version='1.16.2',ortho,7.981370973702554,241.86444685559022,56.4343491777104,22.927419333886828,0.32109428561799475,True,True
333,SrNiSn2,"[Element Ni, Element Sn, Element Sr]",Sr1 Ni1 Sn2,crystal_system=<CrystalSystem.ortho: 'Orthorhombic'> symbol='Cmcm' number=63 point_group='mmm' symprec=0.1 version='1.16.2',ortho,6.527410304740052,195.2395428234446,56.44761420454569,26.676485310073687,0.2958633549611804,True,False
334,CaAl2,"[Element Al, Element Ca]",Ca1 Al2,crystal_system=<CrystalSystem.cubic: 'Cubic'> symbol='Fd-3m' number=227 point_group='m-3m' symprec=0.1 version='1.16.2',cubic,2.4496553743053537,127.49457266006515,56.463856011596306,41.36071870198772,0.2056208546364716,True,True
335,SrCuAs,"[Element As, Element Cu, Element Sr]",Sr1 Cu1 As1,crystal_system=<CrystalSystem.hex_: 'Hexagonal'> symbol='P6_3/mmc' number=194 point_group='6/mmm' symprec=0.1 version='1.16.2',hex_,5.592695739863697,134.25629061057555,56.49440324610288,41.06900261748737,0.2074193463133409,False,True
336,Sr3WN3,"[Element N, Element Sr, Element W]",Sr3 W1 N3,crystal_system=<CrystalSystem.hex_: 'Hexagonal'> symbol='P6_3/m' number=176 point_group='6/m' symprec=0.1 version='1.16.2',hex_,5.544582238940223,292.7321784437177,56.58046679524854,30.005889550224282,0.27467111398725735,True,False
337,LaCuSe2,"[Element Cu, Element La, Element Se]",La1 Cu1 Se2,crystal_system=<CrystalSystem.mono: 'Monoclinic'> symbol='P2_1/c' number=14 point_group='2/m' symprec=0.1 version='1.16.2',mono,6.411909168631721,373.31215317310466,56.74083052941061,29.018895552909242,0.281529611121766,False,True
338,BaZnF4,"[Element Ba, Element F, Element Zn]",Ba1 Zn1 F4,crystal_system=<CrystalSystem.ortho: 'Orthorhombic'> symbol='Cmc2_1' number=36 point_group='mm2' symprec=0.1 version='1.16.2',ortho,5.17577072376788,178.8492712581944,56.76199344601196,23.20124312324871,0.3201335258095909,False,True
339,CdCu2GeSe4,"[Element Cd, Element Cu, Element Ge, Element Se]",Cd1 Cu2 Ge1 Se4,crystal_system=<CrystalSystem.tet: 'Tetragonal'> symbol='I-42m' number=121 point_group='-42m' symprec=0.1 version='1.16.2',tet,5.453356724399745,191.21989581113425,56.85363817606434,22.851583715109584,0.32277579844118826,True,True
340,Ca(CdP)2,"[Element Ca, Element Cd, Element P]",Ca1 Cd2 P2,crystal_system=<CrystalSystem.trig: 'Trigonal'> symbol='P-3m1' number=164 point_group='-3m' symprec=0.1 version='1.16.2',trig,4.821226034196599,112.57366457698613,56.867365163618004,34.46151338553415,0.24792080193292032,False,True
341,YCd,"[Element Cd, Element Y]",Y1 Cd1,crystal_system=<CrystalSystem.cubic: 'Cubic'> symbol='Pm-3m' number=221 point_group='m-3m' symprec=0.1 version='1.16.2',cubic,6.406223592787223,52.18277029328712,56.89268422786522,24.828855689751762,0.3095040024697928,True,True