,Formula,Elements,Composition,Symmetry,Crystal system,Density [g/m$^3$],Volume [$\mathring{A}^3$],Bulk modulus[GPa],Shear modulus [GPa],Poisson,Metal,Experimental report
2129,Hf3(NiGe)4,"[Element Ge, Element Hf, Element Ni]",Hf3 Ni4 Ge4,crystal_system=<CrystalSystem.ortho: 'Orthorhombic'> symbol='Immm' number=71 point_group='mmm' symprec=0.1 version='1.16.2',ortho,10.952317882899733,160.83406623361662,159.71384304832333,87.3625885658429,0.26867973461817063,True,True
2130,Hf2ZnRe,"[Element Hf, Element Re, Element Zn]",Hf2 Zn1 Re1,crystal_system=<CrystalSystem.cubic: 'Cubic'> symbol='Fm-3m' number=225 point_group='m-3m' symprec=0.1 version='1.16.2',cubic,14.340044369288725,70.47380103933526,159.78586095150473,58.17063392117586,0.33767186882735195,True,False
2131,Mn(Ni3O4)2,"[Element Mn, Element Ni, Element O]",Mn1 Ni6 O8,crystal_system=<CrystalSystem.cubic: 'Cubic'> symbol='Fm-3m' number=225 point_group='m-3m' symprec=0.1 version='1.16.2',cubic,6.142112964309543,144.6642070855784,159.91431857484497,84.52647805319384,0.275302879280655,False,True
2132,Be2V,"[Element Be, Element V]",Be2 V1,crystal_system=<CrystalSystem.hex_: 'Hexagonal'> symbol='P6_3/mmc' number=194 point_group='6/mmm' symprec=0.1 version='1.16.2',hex_,3.953487927139779,115.86782460891379,160.05688749702003,137.53650700023906,0.1660152727865262,True,True
2133,Nb2SnC,"[Element C, Element Nb, Element Sn]",Nb2 Sn1 C1,crystal_system=<CrystalSystem.hex_: 'Hexagonal'> symbol='P6_3/mmc' number=194 point_group='6/mmm' symprec=0.1 version='1.16.2',hex_,8.178645289260228,128.53379933380415,160.08705118566712,78.52729413495898,0.2892029771034703,True,True
2134,Al4C3,"[Element Al, Element C]",Al4 C3,crystal_system=<CrystalSystem.trig: 'Trigonal'> symbol='R-3m' number=166 point_group='-3m' symprec=0.1 version='1.16.2',trig,2.9917522501588767,79.90244024318747,160.15449184393844,112.8375953337995,0.21472090425564644,False,True
2135,VFeSb,"[Element Fe, Element Sb, Element V]",V1 Fe1 Sb1,crystal_system=<CrystalSystem.cubic: 'Cubic'> symbol='F-43m' number=216 point_group='-43m' symprec=0.1 version='1.16.2',cubic,7.969117301040473,47.62263842384987,160.39251147040125,61.99088171190507,0.32880756721542825,False,True
2136,Pd,[Element Pd],Pd1,crystal_system=<CrystalSystem.cubic: 'Cubic'> symbol='Fm-3m' number=225 point_group='m-3m' symprec=0.1 version='1.16.2',cubic,11.759025221988814,15.02799459406926,160.471433539106,42.88311871070893,0.3773126174290425,True,True
2137,BP,"[Element B, Element P]",B1 P1,crystal_system=<CrystalSystem.cubic: 'Cubic'> symbol='F-43m' number=216 point_group='-43m' symprec=0.1 version='1.16.2',cubic,2.9813687825821957,23.272944325085422,160.51811416973587,162.10210616114426,0.12223145632423066,False,True
2138,Nb2Al,"[Element Al, Element Nb]",Nb2 Al1,crystal_system=<CrystalSystem.tet: 'Tetragonal'> symbol='P4_2/mnm' number=136 point_group='4/mmm' symprec=0.1 version='1.16.2',tet,6.8271069171903545,517.5739156586486,160.52537160491346,82.462416202914,0.2807000452944244,True,True
2139,SrPt5,"[Element Pt, Element Sr]",Sr1 Pt5,crystal_system=<CrystalSystem.hex_: 'Hexagonal'> symbol='P6/mmm' number=191 point_group='6/mmm' symprec=0.1 version='1.16.2',hex_,15.716187276420182,112.31855527752045,160.6303851336377,69.28077023928662,0.3114541932842045,True,True
2140,ZrInNi4,"[Element In, Element Ni, Element Zr]",Zr1 In1 Ni4,crystal_system=<CrystalSystem.cubic: 'Cubic'> symbol='F-43m' number=216 point_group='-43m' symprec=0.1 version='1.16.2',cubic,9.064406688361345,80.75448842190549,160.81851204307287,64.88486106395578,0.3221814211137358,True,True
2141,SiPd3,"[Element Pd, Element Si]",Si1 Pd3,crystal_system=<CrystalSystem.ortho: 'Orthorhombic'> symbol='Pnma' number=62 point_group='mmm' symprec=0.1 version='1.16.2',ortho,9.908352593913097,232.84628474446436,160.83211706916381,44.199169043240595,0.374123186896863,True,True
2142,ScBO3,"[Element B, Element O, Element Sc]",Sc1 B1 O3,crystal_system=<CrystalSystem.trig: 'Trigonal'> symbol='R-3c' number=167 point_group='-3m' symprec=0.1 version='1.16.2',trig,3.4230542310583343,100.67384890531,160.8949177016791,78.69680345253576,0.2897237559732738,False,True
2143,Ce(FeP3)4,"[Element Ce, Element Fe, Element P]",Ce1 Fe4 P12,crystal_system=<CrystalSystem.cubic: 'Cubic'> symbol='Im-3' number=204 point_group='m-3' symprec=0.1 version='1.16.2',cubic,5.242248830025205,232.87658602688083,160.92655607888895,132.02455731324494,0.1778863453764761,False,True
2144,ZrAlCo2,"[Element Al, Element Co, Element Zr]",Zr1 Al1 Co2,crystal_system=<CrystalSystem.cubic: 'Cubic'> symbol='Fm-3m' number=225 point_group='m-3m' symprec=0.1 version='1.16.2',cubic,7.109419627750873,55.139052200231504,160.92798277772766,78.20294391837439,0.2908963337685972,True,True
2145,Si3Pt2,"[Element Pt, Element Si]",Si3 Pt2,crystal_system=<CrystalSystem.hex_: 'Hexagonal'> symbol='P6_3/mmc' number=194 point_group='6/mmm' symprec=0.1 version='1.16.2',hex_,9.898209726812928,159.18038476556535,160.93919913684795,25.258166535927842,0.42542992110152417,True,True
2146,ScGaRh2,"[Element Ga, Element Rh, Element Sc]",Sc1 Ga1 Rh2,crystal_system=<CrystalSystem.cubic: 'Cubic'> symbol='Fm-3m' number=225 point_group='m-3m' symprec=0.1 version='1.16.2',cubic,8.962379098882213,59.37999424656901,161.12572564371,78.13238901236971,0.2912794534112223,True,False
2147,Co2CuGe2,"[Element Co, Element Cu, Element Ge]",Co2 Cu1 Ge2,crystal_system=<CrystalSystem.ortho: 'Orthorhombic'> symbol='Pmma' number=51 point_group='mmm' symprec=0.1 version='1.16.2',ortho,8.63383319992688,125.66503516897164,161.13366523903616,72.91062361284153,0.30340886003605644,True,True
2148,MgGeRh2,"[Element Ge, Element Mg, Element Rh]",Mg1 Ge1 Rh2,crystal_system=<CrystalSystem.cubic: 'Cubic'> symbol='Fm-3m' number=225 point_group='m-3m' symprec=0.1 version='1.16.2',cubic,9.062593285583878,55.47398518338777,161.24045079154186,67.93340286180876,0.31528283165248955,True,False
2149,NbInO4,"[Element In, Element Nb, Element O]",Nb1 In1 O4,crystal_system=<CrystalSystem.mono: 'Monoclinic'> symbol='P2/c' number=13 point_group='2/m' symprec=0.1 version='1.16.2',mono,6.119882493342202,147.4554335102898,161.31225083237373,58.60325083759598,0.33797530925629915,False,True
2150,LiAlPt2,"[Element Al, Element Li, Element Pt]",Li1 Al1 Pt2,crystal_system=<CrystalSystem.cubic: 'Cubic'> symbol='Fm-3m' number=225 point_group='m-3m' symprec=0.1 version='1.16.2',cubic,13.293625172769662,52.974181080661126,161.4854323476162,134.30435242177015,0.1744192947515893,True,False
2151,NbAs,"[Element As, Element Nb]",Nb1 As1,crystal_system=<CrystalSystem.tet: 'Tetragonal'> symbol='I4_1md' number=109 point_group='4mm' symprec=0.1 version='1.16.2',tet,7.854668476895525,70.96032584400321,161.51585224927243,88.13671201923214,0.26914842044906034,True,True
2152,TiAlPt,"[Element Al, Element Pt, Element Ti]",Ti1 Al1 Pt1,crystal_system=<CrystalSystem.hex_: 'Hexagonal'> symbol='P6_3/mmc' number=194 point_group='6/mmm' symprec=0.1 version='1.16.2',hex_,9.812179895662483,91.36267994637073,161.5344476792024,49.181535400320676,0.36179394343959526,True,True
2153,AlNi,"[Element Al, Element Ni]",Al1 Ni1,crystal_system=<CrystalSystem.cubic: 'Cubic'> symbol='Pm-3m' number=221 point_group='m-3m' symprec=0.1 version='1.16.2',cubic,6.083259310291866,23.386572118200654,161.57857260376278,71.93198432913096,0.30617166025831477,True,True
2154,AlPd5,"[Element Al, Element Pd]",Al1 Pd5,crystal_system=<CrystalSystem.ortho: 'Orthorhombic'> symbol='Pnma' number=62 point_group='mmm' symprec=0.1 version='1.16.2',ortho,10.546067499658669,352.1224328557288,161.61099495869678,51.39364353905397,0.356235290782878,True,True
2155,MgTi2O5,"[Element Mg, Element O, Element Ti]",Mg1 Ti2 O5,crystal_system=<CrystalSystem.ortho: 'Orthorhombic'> symbol='Cmcm' number=63 point_group='mmm' symprec=0.1 version='1.16.2',ortho,3.6484799494604228,182.08546974502198,161.74600852663843,71.29953408392923,0.3078309374294656,False,True
2156,BePd3,"[Element Be, Element Pd]",Be1 Pd3,crystal_system=<CrystalSystem.ortho: 'Orthorhombic'> symbol='Cmcm' number=63 point_group='mmm' symprec=0.1 version='1.16.2',ortho,10.379005232335853,105.04066054244497,161.75165962315154,37.268076832494245,0.3930150265357317,True,True
2157,SmScO3,"[Element O, Element Sc, Element Sm]",Sm1 Sc1 O3,crystal_system=<CrystalSystem.ortho: 'Orthorhombic'> symbol='Pnma' number=62 point_group='mmm' symprec=0.1 version='1.16.2',ortho,6.338811595774986,254.95794113861217,161.77093943096315,81.17916136130991,0.285047721035176,False,True
2158,Ti3Pd5,"[Element Pd, Element Ti]",Ti3 Pd5,crystal_system=<CrystalSystem.tet: 'Tetragonal'> symbol='P4/mmm' number=123 point_group='4/mmm' symprec=0.1 version='1.16.2',tet,9.105693784733388,123.22267082184108,161.7863933544562,44.01191490903537,0.37528999412596464,True,True
2159,TiAlNi2,"[Element Al, Element Ni, Element Ti]",Ti1 Al1 Ni2,crystal_system=<CrystalSystem.cubic: 'Cubic'> symbol='Fm-3m' number=225 point_group='m-3m' symprec=0.1 version='1.16.2',cubic,6.392915785187361,49.93250348550047,161.85246852967077,59.02286874218945,0.3374265332654345,True,True
2160,HfFe2,"[Element Fe, Element Hf]",Hf1 Fe2,crystal_system=<CrystalSystem.cubic: 'Cubic'> symbol='Fd-3m' number=227 point_group='m-3m' symprec=0.1 version='1.16.2',cubic,11.148433727515666,86.44357371147333,162.04295146438676,82.18225873737457,0.283088197190071,True,True
2161,Nb5SiSn2,"[Element Nb, Element Si, Element Sn]",Nb5 Si1 Sn2,crystal_system=<CrystalSystem.tet: 'Tetragonal'> symbol='I4/mcm' number=140 point_group='4/mmm' symprec=0.1 version='1.16.2',tet,8.2998519230035,292.1150001289197,162.30865125645647,83.08277454457757,0.28136446754859795,True,True
2162,HfMnSi,"[Element Hf, Element Mn, Element Si]",Hf1 Mn1 Si1,crystal_system=<CrystalSystem.ortho: 'Orthorhombic'> symbol='Pnma' number=62 point_group='mmm' symprec=0.1 version='1.16.2',ortho,9.2200885810237,188.39448410997466,162.30966945047066,86.38727760214425,0.27398005328299085,True,True
2163,CaZrN2,"[Element Ca, Element N, Element Zr]",Ca1 Zr1 N2,crystal_system=<CrystalSystem.trig: 'Trigonal'> symbol='R-3m' number=166 point_group='-3m' symprec=0.1 version='1.16.2',trig,4.960404591077643,53.33223142460089,162.32539673181037,122.99989005005432,0.19752939328239008,False,False
2164,MnSiIr,"[Element Ir, Element Mn, Element Si]",Mn1 Si1 Ir1,crystal_system=<CrystalSystem.ortho: 'Orthorhombic'> symbol='Pnma' number=62 point_group='mmm' symprec=0.1 version='1.16.2',ortho,10.655490292740888,171.5726503908099,162.3672191536983,76.66225690075996,0.29602563693473505,True,True
2165,YPt2,"[Element Pt, Element Y]",Y1 Pt2,crystal_system=<CrystalSystem.cubic: 'Cubic'> symbol='Fd-3m' number=227 point_group='m-3m' symprec=0.1 version='1.16.2',cubic,14.210941247207913,111.95892374374117,162.39707836030382,73.17696454608769,0.30411906512147674,True,True
2166,MgTiO3,"[Element Mg, Element O, Element Ti]",Mg1 Ti1 O3,crystal_system=<CrystalSystem.trig: 'Trigonal'> symbol='R-3' number=148 point_group='-3' symprec=0.1 version='1.16.2',trig,3.8928989368345968,102.51861914678508,162.51605153482268,84.20885011369775,0.27907874476708894,False,True
2167,TiGaPt,"[Element Ga, Element Pt, Element Ti]",Ti1 Ga1 Pt1,crystal_system=<CrystalSystem.hex_: 'Hexagonal'> symbol='P6_3/mmc' number=194 point_group='6/mmm' symprec=0.1 version='1.16.2',hex_,11.381532080797156,91.23681916006572,162.60270540464126,56.78503424116715,0.34359415594821224,True,True
2168,V3Sn,"[Element Sn, Element V]",V3 Sn1,crystal_system=<CrystalSystem.cubic: 'Cubic'> symbol='Pm-3n' number=223 point_group='m-3m' symprec=0.1 version='1.16.2',cubic,7.4867898107368775,120.45046183427421,162.64155344453175,21.908024999104082,0.4355434862376243,True,True
2169,CaIr2,"[Element Ca, Element Ir]",Ca1 Ir2,crystal_system=<CrystalSystem.cubic: 'Cubic'> symbol='Fd-3m' number=227 point_group='m-3m' symprec=0.1 version='1.16.2',cubic,13.143616267784608,107.26405060504938,162.74624755271623,59.122966552509475,0.3379783453309975,True,True
2170,FeAs,"[Element As, Element Fe]",Fe1 As1,crystal_system=<CrystalSystem.ortho: 'Orthorhombic'> symbol='Pnma' number=62 point_group='mmm' symprec=0.1 version='1.16.2',ortho,7.614633336220441,114.06618720487754,162.8392442742508,80.91981302032057,0.28684278826262893,True,True
2171,PrFeO3,"[Element Fe, Element O, Element Pr]",Pr1 Fe1 O3,crystal_system=<CrystalSystem.ortho: 'Orthorhombic'> symbol='Pnma' number=62 point_group='mmm' symprec=0.1 version='1.16.2',ortho,6.705028763705313,242.4558416265244,162.84904814090214,78.0452918805928,0.2933824556771487,False,True
2172,MgTiRh2,"[Element Mg, Element Rh, Element Ti]",Mg1 Ti1 Rh2,crystal_system=<CrystalSystem.cubic: 'Cubic'> symbol='Fm-3m' number=225 point_group='m-3m' symprec=0.1 version='1.16.2',cubic,7.96135044867895,57.980318078732815,163.0139223891337,77.16967749144074,0.29556309338306225,True,False
2173,ZnGeN2,"[Element Ge, Element N, Element Zn]",Zn1 Ge1 N2,crystal_system=<CrystalSystem.ortho: 'Orthorhombic'> symbol='Pna2_1' number=33 point_group='mm2' symprec=0.1 version='1.16.2',ortho,6.0526797656450535,182.23538225731187,163.10902267844142,94.8174625226892,0.25652225375084836,False,True
2174,MnBe2,"[Element Be, Element Mn]",Mn1 Be2,crystal_system=<CrystalSystem.hex_: 'Hexagonal'> symbol='P6_3/mmc' number=194 point_group='6/mmm' symprec=0.1 version='1.16.2',hex_,4.709906088885829,102.89541086489749,163.1600624964465,161.97749421122953,0.12704217305013005,True,True
2175,CoP2,"[Element Co, Element P]",Co1 P2,crystal_system=<CrystalSystem.mono: 'Monoclinic'> symbol='P2_1/c' number=14 point_group='2/m' symprec=0.1 version='1.16.2',mono,5.185653188975327,154.83268856077132,163.16539836117926,121.79985976557529,0.20112715729294384,False,True
2176,TiCo,"[Element Co, Element Ti]",Ti1 Co1,crystal_system=<CrystalSystem.cubic: 'Cubic'> symbol='Pm-3m' number=221 point_group='m-3m' symprec=0.1 version='1.16.2',cubic,6.660445906737043,26.626730192135117,163.17202584615768,61.415967765131256,0.3327852728244737,True,True
2177,Si2Pd9,"[Element Pd, Element Si]",Si2 Pd9,crystal_system=<CrystalSystem.ortho: 'Orthorhombic'> symbol='Pnma' number=62 point_group='mmm' symprec=0.1 version='1.16.2',ortho,10.483159774435295,642.4418909360118,163.2779860179939,37.345634313913294,0.393739339910227,True,True
2178,NbGaO4,"[Element Ga, Element Nb, Element O]",Nb1 Ga1 O4,crystal_system=<CrystalSystem.mono: 'Monoclinic'> symbol='C2/m' number=12 point_group='2/m' symprec=0.1 version='1.16.2',mono,4.950024551687939,152.04892416432648,163.3410025745644,59.49814794175168,0.3375909262227526,False,False
2179,HfAlPt,"[Element Al, Element Hf, Element Pt]",Hf1 Al1 Pt1,crystal_system=<CrystalSystem.hex_: 'Hexagonal'> symbol='P-62c' number=190 point_group='-6m2' symprec=0.1 version='1.16.2',hex_,12.837891625638107,310.86325056365797,163.34567509071778,75.5232504655612,0.29969442593793655,True,True
2180,ScAlRh2,"[Element Al, Element Rh, Element Sc]",Sc1 Al1 Rh2,crystal_system=<CrystalSystem.cubic: 'Cubic'> symbol='Fm-3m' number=225 point_group='m-3m' symprec=0.1 version='1.16.2',cubic,7.7748844887352195,59.320772363519445,163.36641394186665,83.7305568492225,0.28112702483579755,True,False
2181,HfAlPd2,"[Element Al, Element Hf, Element Pd]",Hf1 Al1 Pd2,crystal_system=<CrystalSystem.cubic: 'Cubic'> symbol='Fm-3m' number=225 point_group='m-3m' symprec=0.1 version='1.16.2',cubic,10.705462494199327,64.88488024045945,163.46999158724762,26.27016434124029,0.4237337696388475,True,True
2182,YB2,"[Element B, Element Y]",Y1 B2,crystal_system=<CrystalSystem.hex_: 'Hexagonal'> symbol='P6/mmm' number=191 point_group='6/mmm' symprec=0.1 version='1.16.2',hex_,5.0358612178924975,36.4457646728228,163.6841934235114,151.07049871519627,0.1470992003110511,True,True
2183,Zn(FeO2)2,"[Element Fe, Element O, Element Zn]",Zn1 Fe2 O4,crystal_system=<CrystalSystem.cubic: 'Cubic'> symbol='Fd-3m' number=227 point_group='m-3m' symprec=0.1 version='1.16.2',cubic,5.335785441202922,150.06237695876197,163.7429845788235,72.05265095172555,0.30812620982463057,False,True
2184,HfCo2Sn,"[Element Co, Element Hf, Element Sn]",Hf1 Co2 Sn1,crystal_system=<CrystalSystem.cubic: 'Cubic'> symbol='Fm-3m' number=225 point_group='m-3m' symprec=0.1 version='1.16.2',cubic,11.480456383066057,60.035414345048835,163.78682452581572,77.55564272733544,0.2955173693327393,True,True
2185,CuRhO2,"[Element Cu, Element O, Element Rh]",Cu1 Rh1 O2,crystal_system=<CrystalSystem.trig: 'Trigonal'> symbol='R-3m' number=166 point_group='-3m' symprec=0.1 version='1.16.2',trig,7.024418962510328,46.91270234409874,163.96061587784993,44.687706873313076,0.3750738655465174,False,True
2186,ZrCo2,"[Element Co, Element Zr]",Zr1 Co2,crystal_system=<CrystalSystem.cubic: 'Cubic'> symbol='Fd-3m' number=227 point_group='m-3m' symprec=0.1 version='1.16.2',cubic,8.306388064573891,83.59897427051912,164.0442765460878,76.12220284359651,0.2990632766300406,True,True
2187,Zr2CoTc,"[Element Co, Element Tc, Element Zr]",Zr2 Co1 Tc1,crystal_system=<CrystalSystem.cubic: 'Cubic'> symbol='Fm-3m' number=225 point_group='m-3m' symprec=0.1 version='1.16.2',cubic,8.245869218433395,68.3440056879729,164.20195925863194,69.31297244385897,0.31497424650351535,True,False
2188,SiNi,"[Element Ni, Element Si]",Si1 Ni1,crystal_system=<CrystalSystem.ortho: 'Orthorhombic'> symbol='Pnma' number=62 point_group='mmm' symprec=0.1 version='1.16.2',ortho,6.0601731143436215,95.11263185898753,164.218581970404,81.76886025452137,0.2864762597819599,True,True
2189,Ni3Sn,"[Element Ni, Element Sn]",Ni3 Sn1,crystal_system=<CrystalSystem.hex_: 'Hexagonal'> symbol='P6_3/mmc' number=194 point_group='6/mmm' symprec=0.1 version='1.16.2',hex_,9.757069127611178,100.33968954172492,164.25987018242978,65.57590816730884,0.3238329183574495,True,True
2190,TiGaPd2,"[Element Ga, Element Pd, Element Ti]",Ti1 Ga1 Pd2,crystal_system=<CrystalSystem.cubic: 'Cubic'> symbol='Fm-3m' number=225 point_group='m-3m' symprec=0.1 version='1.16.2',cubic,9.15950231951782,59.90411974758063,164.36718679950843,5.279452966169767,0.48411019032247987,True,False
2191,YbMnO3,"[Element Mn, Element O, Element Yb]",Yb1 Mn1 O3,crystal_system=<CrystalSystem.ortho: 'Orthorhombic'> symbol='Pnma' number=62 point_group='mmm' symprec=0.1 version='1.16.2',ortho,9.277694254408901,197.5789775819768,164.44121084354043,100.24824173728501,0.24666528330475182,False,True
2192,HfAlNi2,"[Element Al, Element Hf, Element Ni]",Hf1 Al1 Ni2,crystal_system=<CrystalSystem.cubic: 'Cubic'> symbol='Fm-3m' number=225 point_group='m-3m' symprec=0.1 version='1.16.2',cubic,9.78064914920402,54.81424351741538,164.50448359337406,48.86036229174998,0.36487079266875866,True,True
2193,MnSiNi,"[Element Mn, Element Ni, Element Si]",Mn1 Si1 Ni1,crystal_system=<CrystalSystem.ortho: 'Orthorhombic'> symbol='Pnma' number=62 point_group='mmm' symprec=0.1 version='1.16.2',ortho,6.553579482986525,143.63236102201853,164.58637655957656,86.26020689480444,0.2769206952537474,True,True
2194,Zr2CuOs,"[Element Cu, Element Os, Element Zr]",Zr2 Cu1 Os1,crystal_system=<CrystalSystem.cubic: 'Cubic'> symbol='Fm-3m' number=225 point_group='m-3m' symprec=0.1 version='1.16.2',cubic,10.339658274892413,70.05715029746044,164.73823111909434,45.96267866532952,0.3723678155198471,True,False
2195,La2Hf2O7,"[Element Hf, Element La, Element O]",La2 Hf2 O7,crystal_system=<CrystalSystem.cubic: 'Cubic'> symbol='Fd-3m' number=227 point_group='m-3m' symprec=0.1 version='1.16.2',cubic,8.0106159059454,309.60629513355906,164.8165474486595,89.22538580637966,0.2706976103924847,False,True
2196,LiBePt2,"[Element Be, Element Li, Element Pt]",Li1 Be1 Pt2,crystal_system=<CrystalSystem.cubic: 'Cubic'> symbol='Fm-3m' number=225 point_group='m-3m' symprec=0.1 version='1.16.2',cubic,14.45839605826584,46.64280088656353,164.89140141738145,81.39721566754943,0.28805436395656514,True,False
2197,Zr2Fe3Si,"[Element Fe, Element Si, Element Zr]",Zr2 Fe3 Si1,crystal_system=<CrystalSystem.hex_: 'Hexagonal'> symbol='P6_3/mmc' number=194 point_group='6/mmm' symprec=0.1 version='1.16.2',hex_,7.163296861472766,175.28172466994133,165.00666572549588,93.06492038676473,0.26262377012052435,True,True