,Formula,Elements,Composition,Symmetry,Crystal system,Density [g/m$^3$],Volume [$\mathring{A}^3$],Bulk modulus[GPa],Shear modulus [GPa],Poisson,Metal,Experimental report
2541,Ni2P,"[Element Ni, Element P]",Ni2 P1,crystal_system=<CrystalSystem.hex_: 'Hexagonal'> symbol='P-62m' number=189 point_group='-6m2' symprec=0.1 version='1.16.2',hex_,7.553723583612449,97.84254338278858,193.66779998727282,41.71226625765208,0.3995233253623871,True,True
2542,Ta,[Element Ta],Ta1,crystal_system=<CrystalSystem.cubic: 'Cubic'> symbol='Im-3m' number=229 point_group='m-3m' symprec=0.1 version='1.16.2',cubic,16.573164675563017,18.129972738489144,193.70515038385452,62.22993682752398,0.3549070110932073,True,True
2543,OsS2,"[Element Os, Element S]",Os1 S2,crystal_system=<CrystalSystem.cubic: 'Cubic'> symbol='Pa-3' number=205 point_group='m-3' symprec=0.1 version='1.16.2',cubic,9.416622327618146,179.41665377896155,193.71804995700003,138.72999200549742,0.21093266832380553,True,True
2544,V5Si3,"[Element Si, Element V]",V5 Si3,crystal_system=<CrystalSystem.tet: 'Tetragonal'> symbol='I4/mcm' number=140 point_group='4/mmm' symprec=0.1 version='1.16.2',tet,5.470981040235237,205.76308345122715,193.7592802740116,119.91276236210882,0.24348038503886396,True,True
2545,V3As,"[Element As, Element V]",V3 As1,crystal_system=<CrystalSystem.cubic: 'Cubic'> symbol='Pm-3n' number=223 point_group='m-3m' symprec=0.1 version='1.16.2',cubic,7.23486852175834,104.54406881851067,193.92734321560891,109.11997596131201,0.26309235953383103,True,True
2546,Hf2TcRu,"[Element Hf, Element Ru, Element Tc]",Hf2 Tc1 Ru1,crystal_system=<CrystalSystem.cubic: 'Cubic'> symbol='Fm-3m' number=225 point_group='m-3m' symprec=0.1 version='1.16.2',cubic,13.688221677411208,67.45527430394138,193.94099712646212,91.04551115282564,0.29703572657170035,True,False
2547,TiFe,"[Element Fe, Element Ti]",Ti1 Fe1,crystal_system=<CrystalSystem.cubic: 'Cubic'> symbol='Pm-3m' number=221 point_group='m-3m' symprec=0.1 version='1.16.2',cubic,6.786110080250348,25.377989104011977,193.94290726282787,97.01736811949809,0.2856273250406829,True,True
2548,Hf3Rh5,"[Element Hf, Element Rh]",Hf3 Rh5,crystal_system=<CrystalSystem.ortho: 'Orthorhombic'> symbol='Pbam' number=55 point_group='mmm' symprec=0.1 version='1.16.2',ortho,13.57542836330545,256.87025439214904,194.0009941991298,66.90437294742412,0.3453453200004518,True,True
2549,ScBRh3,"[Element B, Element Rh, Element Sc]",Sc1 B1 Rh3,crystal_system=<CrystalSystem.cubic: 'Cubic'> symbol='Pm-3m' number=221 point_group='m-3m' symprec=0.1 version='1.16.2',cubic,8.803060282938153,68.75324322460001,194.0064119153418,95.62551931677032,0.28832820898633915,True,True
2550,TiGaRh2,"[Element Ga, Element Rh, Element Ti]",Ti1 Ga1 Rh2,crystal_system=<CrystalSystem.cubic: 'Cubic'> symbol='Fm-3m' number=225 point_group='m-3m' symprec=0.1 version='1.16.2',cubic,9.529530619287566,56.353247198827354,194.04336899664705,-47.06145707742614,0.6319310814185829,True,False
2551,Ti2CoTc,"[Element Co, Element Tc, Element Ti]",Ti2 Co1 Tc1,crystal_system=<CrystalSystem.cubic: 'Cubic'> symbol='Fm-3m' number=225 point_group='m-3m' symprec=0.1 version='1.16.2',cubic,7.525097391812289,55.75525821130874,194.05900111959178,94.05114538198616,0.2913770399299625,True,False
2552,NbGaCo2,"[Element Co, Element Ga, Element Nb]",Nb1 Ga1 Co2,crystal_system=<CrystalSystem.cubic: 'Cubic'> symbol='Fm-3m' number=225 point_group='m-3m' symprec=0.1 version='1.16.2',cubic,8.892147965634594,52.38039064364669,194.11775478580586,79.29111709046427,0.32024078346221835,True,True
2553,TiCo3,"[Element Co, Element Ti]",Ti1 Co3,crystal_system=<CrystalSystem.cubic: 'Cubic'> symbol='Pm-3m' number=221 point_group='m-3m' symprec=0.1 version='1.16.2',cubic,8.084825931024634,46.144177318710504,194.1985265205305,82.89608081551455,0.313154501210712,True,True
2554,ScAlIr2,"[Element Al, Element Ir, Element Sc]",Sc1 Al1 Ir2,crystal_system=<CrystalSystem.cubic: 'Cubic'> symbol='Fm-3m' number=225 point_group='m-3m' symprec=0.1 version='1.16.2',cubic,12.665630805234986,59.832994838992704,194.3207292821176,106.94740589611263,0.26747517312528907,True,False
2555,AlN,"[Element Al, Element N]",Al1 N1,crystal_system=<CrystalSystem.hex_: 'Hexagonal'> symbol='P6_3mc' number=186 point_group='6mm' symprec=0.1 version='1.16.2',hex_,3.200889713142437,42.52728307818043,194.40551931147388,121.53162599482192,0.24132967895588722,False,True
2556,Mn2P,"[Element Mn, Element P]",Mn2 P1,crystal_system=<CrystalSystem.hex_: 'Hexagonal'> symbol='P-62m' number=189 point_group='-6m2' symprec=0.1 version='1.16.2',hex_,6.7747396077434665,103.57003898873002,194.40715523579973,98.56662958823995,0.2831438457160964,True,True
2557,Nb5Si3,"[Element Nb, Element Si]",Nb5 Si3,crystal_system=<CrystalSystem.tet: 'Tetragonal'> symbol='I4/mcm' number=140 point_group='4/mmm' symprec=0.1 version='1.16.2',tet,7.01340953311384,259.8692043275881,194.43030209850036,123.37425140773364,0.23812013356781725,True,True
2558,Mn2AlCr,"[Element Al, Element Cr, Element Mn]",Mn2 Al1 Cr1,crystal_system=<CrystalSystem.cubic: 'Cubic'> symbol='Fm-3m' number=225 point_group='m-3m' symprec=0.1 version='1.16.2',cubic,5.412413089218342,57.94069836208003,194.43882130815263,102.2775255082363,0.27622865627905924,True,False
2559,Co(PtO2)3,"[Element Co, Element O, Element Pt]",Co1 Pt3 O6,crystal_system=<CrystalSystem.ortho: 'Orthorhombic'> symbol='Cmmm' number=65 point_group='mmm' symprec=0.1 version='1.16.2',ortho,10.97893508642521,447.8031594869369,194.69169688897935,72.55170723387141,0.3342626874219552,False,True
2560,HfAlRu2,"[Element Al, Element Hf, Element Ru]",Hf1 Al1 Ru2,crystal_system=<CrystalSystem.cubic: 'Cubic'> symbol='Fm-3m' number=225 point_group='m-3m' symprec=0.1 version='1.16.2',cubic,11.221386938669148,60.31829109374857,194.71049871404054,80.06407904150805,0.3191856088034625,True,False
2561,ScNbRu2,"[Element Nb, Element Ru, Element Sc]",Sc1 Nb1 Ru2,crystal_system=<CrystalSystem.cubic: 'Cubic'> symbol='Fm-3m' number=225 point_group='m-3m' symprec=0.1 version='1.16.2',cubic,8.796662295981655,64.18196693278152,194.7994286732423,90.70045034638338,0.29847292226926353,True,False
2562,Hf2N,"[Element Hf, Element N]",Hf2 N1,crystal_system=<CrystalSystem.tet: 'Tetragonal'> symbol='P4_2/mnm' number=136 point_group='4/mmm' symprec=0.1 version='1.16.2',tet,13.462054240702814,91.52212545339628,194.88920670655637,141.08920755209402,0.20839570051712103,True,False
2563,NbSiPd,"[Element Nb, Element Pd, Element Si]",Nb1 Si1 Pd1,crystal_system=<CrystalSystem.ortho: 'Orthorhombic'> symbol='Pnma' number=62 point_group='mmm' symprec=0.1 version='1.16.2',ortho,8.305735846463094,181.86290434929214,194.8920000245626,81.38746287462533,0.3167123688611463,True,True
2564,Mn3ZnN,"[Element Mn, Element N, Element Zn]",Mn3 Zn1 N1,crystal_system=<CrystalSystem.cubic: 'Cubic'> symbol='Pm-3m' number=221 point_group='m-3m' symprec=0.1 version='1.16.2',cubic,6.518735876086188,62.21347051880614,194.9234923826531,112.63841964947014,0.2577351963101197,True,True
2565,MnCo2Ge,"[Element Co, Element Ge, Element Mn]",Mn1 Co2 Ge1,crystal_system=<CrystalSystem.cubic: 'Cubic'> symbol='Fm-3m' number=225 point_group='m-3m' symprec=0.1 version='1.16.2',cubic,8.868737982931203,45.95581398181735,194.99983130519092,88.89649384133412,0.3021286026559601,True,True
2566,CrSi2,"[Element Cr, Element Si]",Cr1 Si2,crystal_system=<CrystalSystem.tet: 'Tetragonal'> symbol='I4/mmm' number=139 point_group='4/mmm' symprec=0.1 version='1.16.2',tet,5.153911779125176,34.85036278624792,195.0337841763453,172.01540541661996,0.159203015364441,True,True
2567,SiRh,"[Element Rh, Element Si]",Si1 Rh1,crystal_system=<CrystalSystem.ortho: 'Orthorhombic'> symbol='Pnma' number=62 point_group='mmm' symprec=0.1 version='1.16.2',ortho,7.949047911624329,109.45495626207786,195.0860409957216,95.1050996226402,0.2903213391124525,True,True
2568,BeCo,"[Element Be, Element Co]",Be1 Co1,crystal_system=<CrystalSystem.cubic: 'Cubic'> symbol='Pm-3m' number=221 point_group='m-3m' symprec=0.1 version='1.16.2',cubic,6.633169387216214,17.009358018326665,195.11014362762063,117.76013212612872,0.24876608010036066,True,True
2569,ScVRu2,"[Element Ru, Element Sc, Element V]",Sc1 V1 Ru2,crystal_system=<CrystalSystem.cubic: 'Cubic'> symbol='Fm-3m' number=225 point_group='m-3m' symprec=0.1 version='1.16.2',cubic,8.42676458682056,58.72986729786973,195.2361999847618,88.85423259423541,0.30241818484452854,True,False
2570,HfGaRu2,"[Element Ga, Element Hf, Element Ru]",Hf1 Ga1 Ru2,crystal_system=<CrystalSystem.cubic: 'Cubic'> symbol='Fm-3m' number=225 point_group='m-3m' symprec=0.1 version='1.16.2',cubic,12.368314741133583,60.463269726912664,195.70291613237163,75.60203682939013,0.32888002161406554,True,False
2571,Hf2FeOs,"[Element Fe, Element Hf, Element Os]",Hf2 Fe1 Os1,crystal_system=<CrystalSystem.cubic: 'Cubic'> symbol='Fm-3m' number=225 point_group='m-3m' symprec=0.1 version='1.16.2',cubic,15.419368473608793,64.94405970791962,195.76206039735752,94.43524944736913,0.2922129658764196,True,False
2572,V3Si,"[Element Si, Element V]",V3 Si1,crystal_system=<CrystalSystem.cubic: 'Cubic'> symbol='Pm-3n' number=223 point_group='m-3m' symprec=0.1 version='1.16.2',cubic,5.847707741569444,102.74389070544781,195.77976589811175,73.53561186008123,0.3330948622871883,True,True
2573,AlRh,"[Element Al, Element Rh]",Al1 Rh1,crystal_system=<CrystalSystem.cubic: 'Cubic'> symbol='Pm-3m' number=221 point_group='m-3m' symprec=0.1 version='1.16.2',cubic,8.17216802301044,26.39232346092043,195.91605755056548,102.22470740306233,0.27776364037319257,True,True
2574,AlCuPt2,"[Element Al, Element Cu, Element Pt]",Al1 Cu1 Pt2,crystal_system=<CrystalSystem.tet: 'Tetragonal'> symbol='P4/mmm' number=123 point_group='4/mmm' symprec=0.1 version='1.16.2',tet,14.50983347572861,55.01191466606725,195.97828195310436,82.12662239480642,0.3161512944279762,True,True
2575,MnAlFe2,"[Element Al, Element Fe, Element Mn]",Mn1 Al1 Fe2,crystal_system=<CrystalSystem.cubic: 'Cubic'> symbol='Fm-3m' number=225 point_group='m-3m' symprec=0.1 version='1.16.2',cubic,7.122967541772901,45.1351596578999,196.02581306599058,121.51834819146464,0.24312485287182176,True,True
2576,NbPd3,"[Element Nb, Element Pd]",Nb1 Pd3,crystal_system=<CrystalSystem.ortho: 'Orthorhombic'> symbol='Pmmn' number=59 point_group='mmm' symprec=0.1 version='1.16.2',ortho,11.096479189127983,370.0732624811343,196.10332197775955,79.09918555647974,0.3222248255513465,True,True
2577,YIr2,"[Element Ir, Element Y]",Y1 Ir2,crystal_system=<CrystalSystem.cubic: 'Cubic'> symbol='Fd-3m' number=227 point_group='m-3m' symprec=0.1 version='1.16.2',cubic,14.613894247265153,107.56876974810133,196.12988568384688,87.60797026847794,0.30560293395747934,True,True
2578,Be2NiPt,"[Element Be, Element Ni, Element Pt]",Be2 Ni1 Pt1,crystal_system=<CrystalSystem.cubic: 'Cubic'> symbol='Fm-3m' number=225 point_group='m-3m' symprec=0.1 version='1.16.2',cubic,11.181287970564252,40.365425582542905,196.18578880407136,48.53522556912792,0.38572644028511327,True,False
2579,LiAl5O8,"[Element Al, Element Li, Element O]",Li1 Al5 O8,crystal_system=<CrystalSystem.cubic: 'Cubic'> symbol='P4_332' number=212 point_group='432' symprec=0.1 version='1.16.2',cubic,3.6377099053892574,492.71254483057214,196.22117291099443,120.93820948932725,0.24435333649982613,False,False
2580,Ti2CoRe,"[Element Co, Element Re, Element Ti]",Ti2 Co1 Re1,crystal_system=<CrystalSystem.cubic: 'Cubic'> symbol='Fm-3m' number=225 point_group='m-3m' symprec=0.1 version='1.16.2',cubic,9.996987072463192,56.620551121094834,196.22740783244308,97.14599236291198,0.28752844345782536,True,False
2581,MgIr2,"[Element Ir, Element Mg]",Mg1 Ir2,crystal_system=<CrystalSystem.hex_: 'Hexagonal'> symbol='P6_3/mmc' number=194 point_group='6/mmm' symprec=0.1 version='1.16.2',hex_,13.937746426049374,194.78818362615345,196.34606147551722,58.38811500719376,0.3647225597919144,True,True
2582,CuNi3N,"[Element Cu, Element N, Element Ni]",Cu1 Ni3 N1,crystal_system=<CrystalSystem.cubic: 'Cubic'> symbol='Pm-3m' number=221 point_group='m-3m' symprec=0.1 version='1.16.2',cubic,8.300429841600447,50.7404251421085,196.36542590944907,65.78010655441754,0.34933009923744296,True,True
2583,NiGePt2,"[Element Ge, Element Ni, Element Pt]",Ni1 Ge1 Pt2,crystal_system=<CrystalSystem.ortho: 'Orthorhombic'> symbol='Fmmm' number=69 point_group='mmm' symprec=0.1 version='1.16.2',ortho,15.601852655699243,111.00905348830601,196.38619760198262,59.43744184184018,0.36253976589422815,True,True
2584,Hf2MnIr,"[Element Hf, Element Ir, Element Mn]",Hf2 Mn1 Ir1,crystal_system=<CrystalSystem.cubic: 'Cubic'> symbol='Fm-3m' number=225 point_group='m-3m' symprec=0.1 version='1.16.2',cubic,15.291006954506818,65.60652589520747,196.48889661092727,86.87099300137675,0.3073351628789595,True,False
2585,ThB6,"[Element B, Element Th]",Th1 B6,crystal_system=<CrystalSystem.cubic: 'Cubic'> symbol='Pm-3m' number=221 point_group='m-3m' symprec=0.1 version='1.16.2',cubic,7.106602372168934,69.37503533234552,196.52842649140428,122.33257114763794,0.24224714753089405,True,True
2586,HfRu,"[Element Hf, Element Ru]",Hf1 Ru1,crystal_system=<CrystalSystem.cubic: 'Cubic'> symbol='Pm-3m' number=221 point_group='m-3m' symprec=0.1 version='1.16.2',cubic,13.838295864276922,33.546059862548866,196.5934816474857,96.96602980184011,0.2882056187373709,True,True
2587,CrO2,"[Element Cr, Element O]",Cr1 O2,crystal_system=<CrystalSystem.tet: 'Tetragonal'> symbol='P4_2/mnm' number=136 point_group='4/mmm' symprec=0.1 version='1.16.2',tet,4.924261398838221,56.64882570127859,196.62130790220965,100.7877772378558,0.28110288347941703,True,True
2588,YRh3C,"[Element C, Element Rh, Element Y]",Y1 Rh3 C1,crystal_system=<CrystalSystem.cubic: 'Cubic'> symbol='Pm-3m' number=221 point_group='m-3m' symprec=0.1 version='1.16.2',cubic,9.487898232869844,71.69255674971174,196.6452277015113,79.51599931635208,0.32183329714968095,True,True
2589,FeRh,"[Element Fe, Element Rh]",Fe1 Rh1,crystal_system=<CrystalSystem.cubic: 'Cubic'> symbol='Pm-3m' number=221 point_group='m-3m' symprec=0.1 version='1.16.2',cubic,9.840997812249283,26.787060836875803,196.6905290171277,79.38224620080192,0.32213356114080594,True,True
2590,Hf2Al3C4,"[Element Al, Element C, Element Hf]",Hf2 Al3 C4,crystal_system=<CrystalSystem.hex_: 'Hexagonal'> symbol='P6_3/mmc' number=194 point_group='6/mmm' symprec=0.1 version='1.16.2',hex_,7.684098065583244,210.03580957534146,196.71198857238852,156.4500849594138,0.18566901668407704,True,True
2591,V3Pd,"[Element Pd, Element V]",V3 Pd1,crystal_system=<CrystalSystem.cubic: 'Cubic'> symbol='Pm-3n' number=223 point_group='m-3m' symprec=0.1 version='1.16.2',cubic,7.7427240207035775,111.19745942128147,196.94984676092926,73.54493817263472,0.3339579710002756,True,True
2592,CuPt,"[Element Cu, Element Pt]",Cu1 Pt1,crystal_system=<CrystalSystem.trig: 'Trigonal'> symbol='R-3m' number=166 point_group='-3m' symprec=0.1 version='1.16.2',trig,15.738806121418666,27.287026441624832,197.00201143987297,73.75137431191298,0.3335828077559811,True,True
2593,MgTaRu2,"[Element Mg, Element Ru, Element Ta]",Mg1 Ta1 Ru2,crystal_system=<CrystalSystem.cubic: 'Cubic'> symbol='Fm-3m' number=225 point_group='m-3m' symprec=0.1 version='1.16.2',cubic,11.20483017022269,60.375015276223564,197.002098039844,86.53013942698186,0.30843065743185283,True,False
2594,Ni3N,"[Element N, Element Ni]",Ni3 N1,crystal_system=<CrystalSystem.hex_: 'Hexagonal'> symbol='P6_322' number=182 point_group='622' symprec=0.1 version='1.16.2',hex_,8.218509328604213,76.81361932638828,197.02979789554917,73.33973087103627,0.3344299004355224,True,True
2595,HfFeGe,"[Element Fe, Element Ge, Element Hf]",Hf1 Fe1 Ge1,crystal_system=<CrystalSystem.hex_: 'Hexagonal'> symbol='P-62m' number=189 point_group='-6m2' symprec=0.1 version='1.16.2',hex_,10.83035110943065,141.19874087710866,197.49280252271532,90.78995934614159,0.3006860179489386,True,True
2596,MgPPt5,"[Element Mg, Element P, Element Pt]",Mg1 P1 Pt5,crystal_system=<CrystalSystem.tet: 'Tetragonal'> symbol='P4/mmm' number=123 point_group='4/mmm' symprec=0.1 version='1.16.2',tet,16.071410625564553,106.49442043841334,197.56952530305367,74.86895845222296,0.33177468998299076,True,True
2597,Al2CoIr,"[Element Al, Element Co, Element Ir]",Al2 Co1 Ir1,crystal_system=<CrystalSystem.cubic: 'Cubic'> symbol='Fm-3m' number=225 point_group='m-3m' symprec=0.1 version='1.16.2',cubic,10.091358288890039,50.20657217017581,197.62843814322224,94.4561717704009,0.29386627971651247,True,False
2598,AlSbO4,"[Element Al, Element O, Element Sb]",Al1 Sb1 O4,crystal_system=<CrystalSystem.ortho: 'Orthorhombic'> symbol='Cmmm' number=65 point_group='mmm' symprec=0.1 version='1.16.2',ortho,5.789865919533531,61.01378780609018,197.65835927764158,119.25760794873707,0.24883712093782784,False,False
2599,MgCo3C,"[Element C, Element Co, Element Mg]",Mg1 Co3 C1,crystal_system=<CrystalSystem.cubic: 'Cubic'> symbol='Pm-3m' number=221 point_group='m-3m' symprec=0.1 version='1.16.2',cubic,6.644650796392003,53.258819353494175,197.68399889908446,112.99525315593849,0.25994116573763254,True,True
2600,ZrMoP,"[Element Mo, Element P, Element Zr]",Zr1 Mo1 P1,crystal_system=<CrystalSystem.hex_: 'Hexagonal'> symbol='P-62m' number=189 point_group='-6m2' symprec=0.1 version='1.16.2',hex_,7.56160396974535,143.71009529895738,197.7866536660799,114.03414310416102,0.2581953063161514,True,True
2601,VGaCo2,"[Element Co, Element Ga, Element V]",V1 Ga1 Co2,crystal_system=<CrystalSystem.cubic: 'Cubic'> symbol='Fm-3m' number=225 point_group='m-3m' symprec=0.1 version='1.16.2',cubic,8.466338626066253,46.784079745686235,197.8295389688575,84.42270987421912,0.3131996622439133,True,True
2602,BeSiNi2,"[Element Be, Element Ni, Element Si]",Be1 Si1 Ni2,crystal_system=<CrystalSystem.cubic: 'Cubic'> symbol='Fm-3m' number=225 point_group='m-3m' symprec=0.1 version='1.16.2',cubic,6.5463282538131535,39.18647333259533,197.89140588735842,61.25808662468554,0.35969980510108457,True,False
2603,Ni,[Element Ni],Ni1,crystal_system=<CrystalSystem.cubic: 'Cubic'> symbol='Fm-3m' number=225 point_group='m-3m' symprec=0.1 version='1.16.2',cubic,9.289219853118466,10.492020341068946,198.0725490310337,94.95972648985062,0.2933194048518318,True,True
2604,Be2PdRh,"[Element Be, Element Pd, Element Rh]",Be2 Pd1 Rh1,crystal_system=<CrystalSystem.cubic: 'Cubic'> symbol='Fm-3m' number=225 point_group='m-3m' symprec=0.1 version='1.16.2',cubic,8.740591013369038,43.191968412749425,198.2933298477252,100.35756114691,0.28347495532865824,True,False
2605,BeAlRh2,"[Element Al, Element Be, Element Rh]",Be1 Al1 Rh2,crystal_system=<CrystalSystem.cubic: 'Cubic'> symbol='Fm-3m' number=225 point_group='m-3m' symprec=0.1 version='1.16.2',cubic,8.371811036728632,47.961687534875146,198.57646435840837,103.6906040280386,0.27762159119523394,True,False
2606,MgTiIr2,"[Element Ir, Element Mg, Element Ti]",Mg1 Ti1 Ir2,crystal_system=<CrystalSystem.cubic: 'Cubic'> symbol='Fm-3m' number=225 point_group='m-3m' symprec=0.1 version='1.16.2',cubic,13.009333730372798,58.28216238882143,198.60836500913626,109.19763314390482,0.267672100244609,False,False
2607,MnCoP,"[Element Co, Element Mn, Element P]",Mn1 Co1 P1,crystal_system=<CrystalSystem.ortho: 'Orthorhombic'> symbol='Pnma' number=62 point_group='mmm' symprec=0.1 version='1.16.2',ortho,7.074472026138343,135.99363092204933,198.61826057734044,107.35308543138734,0.27100707249388384,True,True
2608,Be2Mo,"[Element Be, Element Mo]",Be2 Mo1,crystal_system=<CrystalSystem.hex_: 'Hexagonal'> symbol='P6_3/mmc' number=194 point_group='6/mmm' symprec=0.1 version='1.16.2',hex_,6.077583053523648,124.55101112110948,198.7402983474112,149.98555499795066,0.1985039026601679,True,True
2609,Si12Ni31,"[Element Ni, Element Si]",Si12 Ni31,crystal_system=<CrystalSystem.trig: 'Trigonal'> symbol='P321' number=150 point_group='32' symprec=0.1 version='1.16.2',trig,7.821115595846705,457.86154018239523,198.75721966177005,67.55866411662059,0.3473435264279567,True,True