,Formula,Elements,Composition,Symmetry,Crystal system,Density [g/m$^3$],Volume [$\mathring{A}^3$],Bulk modulus[GPa],Shear modulus [GPa],Poisson,Metal,Experimental report
2886,AlVRu2,"[Element Al, Element Ru, Element V]",Al1 V1 Ru2,crystal_system=<CrystalSystem.cubic: 'Cubic'> symbol='Fm-3m' number=225 point_group='m-3m' symprec=0.1 version='1.16.2',cubic,8.750246140038335,53.14771827709595,235.09532241620062,123.1091301827806,0.27708258312155576,True,False
2887,TaSiRh,"[Element Rh, Element Si, Element Ta]",Ta1 Si1 Rh1,crystal_system=<CrystalSystem.ortho: 'Orthorhombic'> symbol='Pnma' number=62 point_group='mmm' symprec=0.1 version='1.16.2',ortho,11.890674531022963,174.24972663409923,235.4254567514023,117.95857613638222,0.2853307907176192,True,True
2888,BIrPd,"[Element B, Element Ir, Element Pd]",B1 Ir1 Pd1,crystal_system=<CrystalSystem.ortho: 'Orthorhombic'> symbol='Fdd2' number=43 point_group='mm2' symprec=0.1 version='1.16.2',ortho,13.7539533014842,149.44081365342043,235.57868413630467,72.86823252651092,0.3597976551670442,True,True
2889,TaFeRu2,"[Element Fe, Element Ru, Element Ta]",Ta1 Fe1 Ru2,crystal_system=<CrystalSystem.cubic: 'Cubic'> symbol='Fm-3m' number=225 point_group='m-3m' symprec=0.1 version='1.16.2',cubic,12.491683261981267,58.34803681530799,235.7918137283175,105.04197920578913,0.3060566343679559,True,False
2890,Mn2AlW,"[Element Al, Element Mn, Element W]",Mn2 Al1 W1,crystal_system=<CrystalSystem.cubic: 'Cubic'> symbol='Fm-3m' number=225 point_group='m-3m' symprec=0.1 version='1.16.2',cubic,10.587905274157851,50.29615651700608,235.85241509009916,127.49847108299443,0.27097611227706475,True,False
2891,Ti2ReIr,"[Element Ir, Element Re, Element Ti]",Ti2 Re1 Ir1,crystal_system=<CrystalSystem.cubic: 'Cubic'> symbol='Fm-3m' number=225 point_group='m-3m' symprec=0.1 version='1.16.2',cubic,13.244012912448657,59.45009929738507,235.89759075798094,116.55698438718557,0.287885316109765,True,False
2892,AlSiRu2,"[Element Al, Element Ru, Element Si]",Al1 Si1 Ru2,crystal_system=<CrystalSystem.cubic: 'Cubic'> symbol='Fm-3m' number=225 point_group='m-3m' symprec=0.1 version='1.16.2',cubic,8.432087579092794,50.652027957914775,236.13323502357008,111.80288256970073,0.2955330471011936,True,False
2893,HfC,"[Element C, Element Hf]",Hf1 C1,crystal_system=<CrystalSystem.cubic: 'Cubic'> symbol='Fm-3m' number=225 point_group='m-3m' symprec=0.1 version='1.16.2',cubic,12.713335417214623,24.88205055427952,236.17053397016866,179.8151317845858,0.19636994199765023,True,True
2894,V3Re,"[Element Re, Element V]",V3 Re1,crystal_system=<CrystalSystem.cubic: 'Cubic'> symbol='Fm-3m' number=225 point_group='m-3m' symprec=0.1 version='1.16.2',cubic,10.410375226171238,54.07826695263613,236.36966456094268,70.48607364131038,0.3643794517263079,True,False
2895,NbNO,"[Element N, Element Nb, Element O]",Nb1 N1 O1,crystal_system=<CrystalSystem.mono: 'Monoclinic'> symbol='P2_1/c' number=14 point_group='2/m' symprec=0.1 version='1.16.2',mono,6.1795091416757915,132.11468427885,236.52745069543218,108.66831566824999,0.3007915178979464,False,True
2896,FeSiRu2,"[Element Fe, Element Ru, Element Si]",Fe1 Si1 Ru2,crystal_system=<CrystalSystem.cubic: 'Cubic'> symbol='Fm-3m' number=225 point_group='m-3m' symprec=0.1 version='1.16.2',cubic,9.364699799290053,50.72573080108856,236.80928598519148,116.19366799036499,0.2891532019008346,True,True
2897,NbRu,"[Element Nb, Element Ru]",Nb1 Ru1,crystal_system=<CrystalSystem.tet: 'Tetragonal'> symbol='P4/mmm' number=123 point_group='4/mmm' symprec=0.1 version='1.16.2',tet,10.086651386414253,31.933824680556693,237.16643993626036,53.02918603155866,0.3959570788535784,True,True
2898,Ta2NbIr,"[Element Ir, Element Nb, Element Ta]",Ta2 Nb1 Ir1,crystal_system=<CrystalSystem.cubic: 'Cubic'> symbol='Fm-3m' number=225 point_group='m-3m' symprec=0.1 version='1.16.2',cubic,16.011997462683787,67.0997207757397,237.17043672761648,106.61437668877272,0.304526898984589,True,False
2899,ScOs2,"[Element Os, Element Sc]",Sc1 Os2,crystal_system=<CrystalSystem.hex_: 'Hexagonal'> symbol='P6_3/mmc' number=194 point_group='6/mmm' symprec=0.1 version='1.16.2',hex_,14.161924476306329,199.5264817606241,237.19700020696547,65.96903041534384,0.3727383845963094,True,True
2900,V2CrTc,"[Element Cr, Element Tc, Element V]",V2 Cr1 Tc1,crystal_system=<CrystalSystem.cubic: 'Cubic'> symbol='Fm-3m' number=225 point_group='m-3m' symprec=0.1 version='1.16.2',cubic,8.082346432147153,51.74921529550602,237.46881109088025,100.60403862536018,0.3143860833849472,True,False
2901,BeAlIr2,"[Element Al, Element Be, Element Ir]",Be1 Al1 Ir2,crystal_system=<CrystalSystem.cubic: 'Cubic'> symbol='Fm-3m' number=225 point_group='m-3m' symprec=0.1 version='1.16.2',cubic,14.247902238593333,48.99925919247571,237.77101787066985,125.15620396691577,0.27609876062426514,True,False
2902,ZrB2,"[Element B, Element Zr]",Zr1 B2,crystal_system=<CrystalSystem.hex_: 'Hexagonal'> symbol='P6/mmm' number=191 point_group='6/mmm' symprec=0.1 version='1.16.2',hex_,6.0707752162811195,30.86676492435399,237.93291802421038,226.302121702607,0.1389183423810916,True,True
2903,BeVRu2,"[Element Be, Element Ru, Element V]",Be1 V1 Ru2,crystal_system=<CrystalSystem.cubic: 'Cubic'> symbol='Fm-3m' number=225 point_group='m-3m' symprec=0.1 version='1.16.2',cubic,8.938025207290032,48.69272439677901,237.96238624149265,86.38580591049157,0.3380818613248513,True,False
2904,CrFeP,"[Element Cr, Element Fe, Element P]",Cr1 Fe1 P1,crystal_system=<CrystalSystem.ortho: 'Orthorhombic'> symbol='Pnma' number=62 point_group='mmm' symprec=0.1 version='1.16.2',ortho,6.842004111606259,134.76022382662546,238.11961255832495,142.75923480392066,0.25016411497827373,True,True
2905,NbCoP,"[Element Co, Element Nb, Element P]",Nb1 Co1 P1,crystal_system=<CrystalSystem.ortho: 'Orthorhombic'> symbol='Pnma' number=62 point_group='mmm' symprec=0.1 version='1.16.2',ortho,7.970583295909252,152.34452823035522,238.2407181053369,116.5254848889726,0.2897278511363608,True,True
2906,V6C5,"[Element C, Element V]",V6 C5,crystal_system=<CrystalSystem.trig: 'Trigonal'> symbol='P3_112' number=151 point_group='32' symprec=0.1 version='1.16.2',trig,5.666738188465111,321.4882712806797,238.34972358121865,174.6279686814715,0.20557639236244366,True,True
2907,ScBIr3,"[Element B, Element Ir, Element Sc]",Sc1 B1 Ir3,crystal_system=<CrystalSystem.cubic: 'Cubic'> symbol='Pm-3m' number=221 point_group='m-3m' symprec=0.1 version='1.16.2',cubic,14.93887983976788,70.29674651362069,238.49027969226336,120.31169532532745,0.28407356512051335,True,True
2908,VGeRu2,"[Element Ge, Element Ru, Element V]",V1 Ge1 Ru2,crystal_system=<CrystalSystem.cubic: 'Cubic'> symbol='Fm-3m' number=225 point_group='m-3m' symprec=0.1 version='1.16.2',cubic,10.064601780619718,53.740156577585736,238.6087754653139,100.37481715657724,0.3155329394914308,True,False
2909,Nb6C5,"[Element C, Element Nb]",Nb6 C5,crystal_system=<CrystalSystem.mono: 'Monoclinic'> symbol='C2/m' number=12 point_group='2/m' symprec=0.1 version='1.16.2',mono,7.505664634704758,136.6127150490126,238.860830260856,161.04543050651165,0.2247487917146634,True,True
2910,V3Ir,"[Element Ir, Element V]",V3 Ir1,crystal_system=<CrystalSystem.cubic: 'Cubic'> symbol='Pm-3n' number=223 point_group='m-3m' symprec=0.1 version='1.16.2',cubic,10.606847605102757,108.03490569104167,238.94056708129654,122.07462641442694,0.28172280222899954,True,True
2911,VGaRu2,"[Element Ga, Element Ru, Element V]",V1 Ga1 Ru2,crystal_system=<CrystalSystem.cubic: 'Cubic'> symbol='Fm-3m' number=225 point_group='m-3m' symprec=0.1 version='1.16.2',cubic,10.02017895091973,53.49500101243987,239.0124610734569,112.19227354660048,0.2970545204858817,True,False
2912,TaAlRu2,"[Element Al, Element Ru, Element Ta]",Ta1 Al1 Ru2,crystal_system=<CrystalSystem.cubic: 'Cubic'> symbol='Fm-3m' number=225 point_group='m-3m' symprec=0.1 version='1.16.2',cubic,11.693481494061537,58.23212615926726,239.1968570879397,131.26287863432492,0.26804674826365704,True,False
2913,Mn2VSi,"[Element Mn, Element Si, Element V]",Mn2 V1 Si1,crystal_system=<CrystalSystem.cubic: 'Cubic'> symbol='Fm-3m' number=225 point_group='m-3m' symprec=0.1 version='1.16.2',cubic,7.015241441594572,44.71420739514216,239.4179513406251,128.23683736210816,0.2727615223639755,True,False
2914,VTc2Ge,"[Element Ge, Element Tc, Element V]",V1 Tc2 Ge1,crystal_system=<CrystalSystem.cubic: 'Cubic'> symbol='Fm-3m' number=225 point_group='m-3m' symprec=0.1 version='1.16.2',cubic,9.670568708852683,54.87552818138113,239.4792496003108,89.75463723300392,0.33341595618069503,True,False
2915,Nb3B2,"[Element B, Element Nb]",Nb3 B2,crystal_system=<CrystalSystem.tet: 'Tetragonal'> symbol='P4/mbm' number=127 point_group='4/mmm' symprec=0.1 version='1.16.2',tet,7.753696904319577,128.6426855296185,239.52783320645298,168.00736579891998,0.21575271240868776,True,True
2916,Be2IrPt,"[Element Be, Element Ir, Element Pt]",Be2 Ir1 Pt1,crystal_system=<CrystalSystem.cubic: 'Cubic'> symbol='Fm-3m' number=225 point_group='m-3m' symprec=0.1 version='1.16.2',cubic,15.255998223812934,44.117637648600066,240.458851714331,125.17375789763996,0.27820498799172055,True,False
2917,NbSiTc2,"[Element Nb, Element Si, Element Tc]",Nb1 Si1 Tc2,crystal_system=<CrystalSystem.cubic: 'Cubic'> symbol='Fm-3m' number=225 point_group='m-3m' symprec=0.1 version='1.16.2',cubic,9.02125223076162,58.34859585680153,240.577453015152,86.84360203580528,0.33889528093376453,True,False
2918,Ta3N5,"[Element N, Element Ta]",Ta3 N5,crystal_system=<CrystalSystem.ortho: 'Orthorhombic'> symbol='Cmcm' number=63 point_group='mmm' symprec=0.1 version='1.16.2',ortho,9.899638880272295,205.6047591845259,240.661625901508,98.67471698148154,0.31964254554429045,False,True
2919,VPt3,"[Element Pt, Element V]",V1 Pt3,crystal_system=<CrystalSystem.tet: 'Tetragonal'> symbol='I4/mmm' number=139 point_group='4/mmm' symprec=0.1 version='1.16.2',tet,17.87508708920754,59.10036440073209,240.7439425539396,110.72954740989528,0.3005978115125171,True,True
2920,CeB2Ir3,"[Element B, Element Ce, Element Ir]",Ce1 B2 Ir3,crystal_system=<CrystalSystem.hex_: 'Hexagonal'> symbol='P6/mmm' number=191 point_group='6/mmm' symprec=0.1 version='1.16.2',hex_,14.970089518970353,81.90490639978755,241.13502127278622,123.08981953917134,0.28188323055607445,True,True
2921,TiBeIr2,"[Element Be, Element Ir, Element Ti]",Ti1 Be1 Ir2,crystal_system=<CrystalSystem.cubic: 'Cubic'> symbol='Fm-3m' number=225 point_group='m-3m' symprec=0.1 version='1.16.2',cubic,14.080612665410264,52.04445266197541,241.25157623151168,121.16872548930583,0.2848881015978847,True,False
2922,Si3Mo5,"[Element Mo, Element Si]",Si3 Mo5,crystal_system=<CrystalSystem.tet: 'Tetragonal'> symbol='I4/mcm' number=140 point_group='4/mmm' symprec=0.1 version='1.16.2',tet,8.220822537828795,227.8292216633434,241.252888302436,119.74918233176132,0.2870514493900938,True,True
2923,NiMoP,"[Element Mo, Element Ni, Element P]",Ni1 Mo1 P1,crystal_system=<CrystalSystem.hex_: 'Hexagonal'> symbol='P-62m' number=189 point_group='-6m2' symprec=0.1 version='1.16.2',hex_,8.467935619861205,109.19117387437342,241.33077703813976,95.38807483529533,0.3253776741376899,True,True
2924,TiPt8,"[Element Pt, Element Ti]",Ti1 Pt8,crystal_system=<CrystalSystem.tet: 'Tetragonal'> symbol='I4/mmm' number=139 point_group='4/mmm' symprec=0.1 version='1.16.2',tet,19.537495312015547,136.71362715603613,241.60238281735832,86.13067497663732,0.3406832080926938,True,True
2925,Be2Re,"[Element Be, Element Re]",Be2 Re1,crystal_system=<CrystalSystem.hex_: 'Hexagonal'> symbol='P6_3/mmc' number=194 point_group='6/mmm' symprec=0.1 version='1.16.2',hex_,11.55971879543903,117.35031432799649,242.3044236203773,172.88782801943842,0.21178992518258918,True,True
2926,TaMn2,"[Element Mn, Element Ta]",Ta1 Mn2,crystal_system=<CrystalSystem.hex_: 'Hexagonal'> symbol='P6_3/mmc' number=194 point_group='6/mmm' symprec=0.1 version='1.16.2',hex_,11.560328198429545,167.0971811178548,242.6012186807169,88.38895880835294,0.33755864020306797,True,True
2927,ScIr3,"[Element Ir, Element Sc]",Sc1 Ir3,crystal_system=<CrystalSystem.cubic: 'Cubic'> symbol='Pm-3m' number=221 point_group='m-3m' symprec=0.1 version='1.16.2',cubic,17.03569378807751,60.5905796549935,242.65533563137637,111.07573954831422,0.3014239338758567,True,True
2928,MnV,"[Element Mn, Element V]",Mn1 V1,crystal_system=<CrystalSystem.cubic: 'Cubic'> symbol='Pm-3m' number=221 point_group='m-3m' symprec=0.1 version='1.16.2',cubic,7.5490461512483975,23.289978270600127,242.75614465488678,122.28570702495776,0.28434228734220507,True,True
2929,TiSiRu2,"[Element Ru, Element Si, Element Ti]",Ti1 Si1 Ru2,crystal_system=<CrystalSystem.cubic: 'Cubic'> symbol='Fm-3m' number=225 point_group='m-3m' symprec=0.1 version='1.16.2',cubic,8.691325574947632,53.131534010132036,242.90945083595312,130.42203535266887,0.2722947509618517,True,False
2930,VPt,"[Element Pt, Element V]",V1 Pt1,crystal_system=<CrystalSystem.tet: 'Tetragonal'> symbol='P4/mmm' number=123 point_group='4/mmm' symprec=0.1 version='1.16.2',tet,14.544249862464369,56.17820898197582,242.9735323624506,140.77442846967324,0.2572003558727218,True,True
2931,V2CrRu,"[Element Cr, Element Ru, Element V]",V2 Cr1 Ru1,crystal_system=<CrystalSystem.cubic: 'Cubic'> symbol='Fm-3m' number=225 point_group='m-3m' symprec=0.1 version='1.16.2',cubic,8.2698604293662,51.19227152143796,242.97851648000633,106.03788989817829,0.30950671320355244,True,False
2932,TaPt2,"[Element Pt, Element Ta]",Ta1 Pt2,crystal_system=<CrystalSystem.ortho: 'Orthorhombic'> symbol='Cmcm' number=63 point_group='mmm' symprec=0.1 version='1.16.2',ortho,19.566568456360947,96.93679629218099,243.0713449016601,78.16311258535464,0.35478327040650004,True,True
2933,TiMn2W,"[Element Mn, Element Ti, Element W]",Ti1 Mn2 W1,crystal_system=<CrystalSystem.cubic: 'Cubic'> symbol='Fm-3m' number=225 point_group='m-3m' symprec=0.1 version='1.16.2',cubic,10.870756291723168,52.17779243812232,243.14982737740755,119.98957606761499,0.28811385894727753,True,False
2934,ReO3,"[Element O, Element Re]",Re1 O3,crystal_system=<CrystalSystem.cubic: 'Cubic'> symbol='Pm-3m' number=221 point_group='m-3m' symprec=0.1 version='1.16.2',cubic,7.286141387981261,213.50498898765895,243.22969369537068,125.53583810653723,0.27981960893098323,True,True
2935,NbO,"[Element Nb, Element O]",Nb1 O1,crystal_system=<CrystalSystem.cubic: 'Cubic'> symbol='Pm-3m' number=221 point_group='m-3m' symprec=0.1 version='1.16.2',cubic,7.068081569952337,76.75730697732924,243.45044045526467,139.9213447673709,0.25883188646655575,True,True
2936,Pt,[Element Pt],Pt1,crystal_system=<CrystalSystem.cubic: 'Cubic'> symbol='Fm-3m' number=225 point_group='m-3m' symprec=0.1 version='1.16.2',cubic,21.134925743724082,15.327454053856243,243.72306728191413,48.873341615891725,0.40601793063939046,True,True
2937,HfTc2W,"[Element Hf, Element Tc, Element W]",Hf1 Tc2 W1,crystal_system=<CrystalSystem.cubic: 'Cubic'> symbol='Fm-3m' number=225 point_group='m-3m' symprec=0.1 version='1.16.2',cubic,14.512921847350551,63.88298557702443,243.8762161391757,118.98432135352414,0.29017897872128084,True,False
2938,TiAlOs2,"[Element Al, Element Os, Element Ti]",Ti1 Al1 Os2,crystal_system=<CrystalSystem.cubic: 'Cubic'> symbol='Fm-3m' number=225 point_group='m-3m' symprec=0.1 version='1.16.2',cubic,13.381225243761202,56.501374270966295,243.87899938302633,104.18926770490947,0.31301867631823665,True,False
2939,TaCr2,"[Element Cr, Element Ta]",Ta1 Cr2,crystal_system=<CrystalSystem.cubic: 'Cubic'> symbol='Fd-3m' number=227 point_group='m-3m' symprec=0.1 version='1.16.2',cubic,11.53292529426364,82.05275286322565,243.98925706352256,82.97858421708581,0.34726862633385575,True,True
2940,V2C,"[Element C, Element V]",V2 C1,crystal_system=<CrystalSystem.ortho: 'Orthorhombic'> symbol='Pbcn' number=60 point_group='mmm' symprec=0.1 version='1.16.2',ortho,5.8158693048957,130.07509514040711,244.05539896459453,116.86645572128523,0.2935301038870592,True,True
2941,Ta2NbOs,"[Element Nb, Element Os, Element Ta]",Ta2 Nb1 Os1,crystal_system=<CrystalSystem.cubic: 'Cubic'> symbol='Fm-3m' number=225 point_group='m-3m' symprec=0.1 version='1.16.2',cubic,15.97071881796744,67.06655347770486,244.30047509288357,104.43228901942902,0.31291994953235724,True,False
2942,NbPt2,"[Element Nb, Element Pt]",Nb1 Pt2,crystal_system=<CrystalSystem.ortho: 'Orthorhombic'> symbol='Immm' number=71 point_group='mmm' symprec=0.1 version='1.16.2',ortho,16.753248417605494,47.88109506097953,244.36058235933623,108.1077960235207,0.3072233596278686,True,True
2943,NbSiIr,"[Element Ir, Element Nb, Element Si]",Nb1 Si1 Ir1,crystal_system=<CrystalSystem.ortho: 'Orthorhombic'> symbol='Pnma' number=62 point_group='mmm' symprec=0.1 version='1.16.2',ortho,11.628304499845232,178.90676366548664,244.47062343374148,120.98672590420685,0.287593179972085,True,True
2944,Co2N,"[Element Co, Element N]",Co2 N1,crystal_system=<CrystalSystem.ortho: 'Orthorhombic'> symbol='Pnnm' number=58 point_group='mmm' symprec=0.1 version='1.16.2',ortho,8.16260684677714,53.65453019820948,244.76780625536426,88.2470771995385,0.339072960932433,True,True
2945,CuPt7,"[Element Cu, Element Pt]",Cu1 Pt7,crystal_system=<CrystalSystem.cubic: 'Cubic'> symbol='Fm-3m' number=225 point_group='m-3m' symprec=0.1 version='1.16.2',cubic,19.904978425895916,119.22308015762196,244.79281497829396,73.65488382393832,0.3632700882454764,True,True
2946,MnSiRu2,"[Element Mn, Element Ru, Element Si]",Mn1 Si1 Ru2,crystal_system=<CrystalSystem.cubic: 'Cubic'> symbol='Fm-3m' number=225 point_group='m-3m' symprec=0.1 version='1.16.2',cubic,9.29410571500684,50.948980070031254,245.3509957668071,122.58084482438193,0.285856018762318,True,False
2947,V3Os,"[Element Os, Element V]",V3 Os1,crystal_system=<CrystalSystem.cubic: 'Cubic'> symbol='Fm-3m' number=225 point_group='m-3m' symprec=0.1 version='1.16.2',cubic,10.702398774503918,53.22688971186598,245.81766068200045,106.95136151144953,0.3100115856921107,True,False
2948,VPt2,"[Element Pt, Element V]",V1 Pt2,crystal_system=<CrystalSystem.ortho: 'Orthorhombic'> symbol='Immm' number=71 point_group='mmm' symprec=0.1 version='1.16.2',ortho,16.90028232962976,43.341261590299084,246.36433459081113,114.11695623342175,0.29937478185444777,True,True
2949,MgMoN2,"[Element Mg, Element Mo, Element N]",Mg1 Mo1 N2,crystal_system=<CrystalSystem.hex_: 'Hexagonal'> symbol='P6_3/mmc' number=194 point_group='6/mmm' symprec=0.1 version='1.16.2',hex_,6.374763245285786,77.2385908868597,246.3971645104652,182.51586176225035,0.20297102320925475,False,True
2950,ZrN,"[Element N, Element Zr]",Zr1 N1,crystal_system=<CrystalSystem.cubic: 'Cubic'> symbol='Fm-3m' number=225 point_group='m-3m' symprec=0.1 version='1.16.2',cubic,7.2348659432912275,24.152443144810146,246.85201631661445,142.43644844796376,0.2580334223658872,True,True
2951,TaCo3,"[Element Co, Element Ta]",Ta1 Co3,crystal_system=<CrystalSystem.trig: 'Trigonal'> symbol='R-3m' number=166 point_group='-3m' symprec=0.1 version='1.16.2',trig,12.723918031622697,140.06384828946963,246.9265450893546,124.72907896210276,0.2838339286860144,True,True
2952,Ta2VOs,"[Element Os, Element Ta, Element V]",Ta2 V1 Os1,crystal_system=<CrystalSystem.cubic: 'Cubic'> symbol='Fm-3m' number=225 point_group='m-3m' symprec=0.1 version='1.16.2',cubic,15.918739347749792,62.908043353255586,247.20308719096255,96.5841675196614,0.32715654137692407,True,False
2953,TiTc2Mo,"[Element Mo, Element Tc, Element Ti]",Ti1 Tc2 Mo1,crystal_system=<CrystalSystem.cubic: 'Cubic'> symbol='Fm-3m' number=225 point_group='m-3m' symprec=0.1 version='1.16.2',cubic,9.463125950797316,59.627527049516246,248.34049679806634,116.32921132102999,0.2974183841331166,True,False
2954,TiOs,"[Element Os, Element Ti]",Ti1 Os1,crystal_system=<CrystalSystem.cubic: 'Cubic'> symbol='Pm-3m' number=221 point_group='m-3m' symprec=0.1 version='1.16.2',cubic,13.47076833744068,29.350172182931075,248.47091459181436,134.29978214065102,0.27100510987814386,True,True