,Formula,Elements,Composition,Symmetry,Crystal system,Density [g/m$^3$],Volume [$\mathring{A}^3$],Bulk modulus[GPa],Shear modulus [GPa],Poisson,Metal,Experimental report
2404,Al2FeCo,"[Element Al, Element Co, Element Fe]",Al2 Fe1 Co1,crystal_system=<CrystalSystem.cubic: 'Cubic'> symbol='Fm-3m' number=225 point_group='m-3m' symprec=0.1 version='1.16.2',cubic,6.186110845809926,45.295256037268544,181.14489446241993,116.66183461747853,0.23489823510179209,True,False
2405,NiO,"[Element Ni, Element O]",Ni1 O1,crystal_system=<CrystalSystem.cubic: 'Cubic'> symbol='Fm-3m' number=225 point_group='m-3m' symprec=0.1 version='1.16.2',cubic,6.762154477618838,18.34183362776642,181.2898999099193,97.57716774897423,0.27181936798792733,False,True
2406,HfCoAs,"[Element As, Element Co, Element Hf]",Hf1 Co1 As1,crystal_system=<CrystalSystem.ortho: 'Orthorhombic'> symbol='Pnma' number=62 point_group='mmm' symprec=0.1 version='1.16.2',ortho,11.841583697735459,175.19978664538093,181.31106642068792,91.92349374861705,0.2831504454721381,True,True
2407,TiFe2Sn,"[Element Fe, Element Sn, Element Ti]",Ti1 Fe2 Sn1,crystal_system=<CrystalSystem.cubic: 'Cubic'> symbol='Fm-3m' number=225 point_group='m-3m' symprec=0.1 version='1.16.2',cubic,8.587095069196165,53.81019084127092,181.40110193904104,105.77139301228789,0.2559026685128368,False,True
2408,ThB2C,"[Element B, Element C, Element Th]",Th1 B2 C1,crystal_system=<CrystalSystem.trig: 'Trigonal'> symbol='R-3m' number=166 point_group='-3m' symprec=0.1 version='1.16.2',trig,8.889336995650634,148.88287260877655,181.4889081588741,125.28078300246676,0.21941489530729244,True,True
2409,BeNi,"[Element Be, Element Ni]",Be1 Ni1,crystal_system=<CrystalSystem.cubic: 'Cubic'> symbol='Pm-3m' number=221 point_group='m-3m' symprec=0.1 version='1.16.2',cubic,6.493584457320203,17.313667771141436,181.50658043445205,-20.496281191071553,0.5586699339377279,True,True
2410,MgAsPt5,"[Element As, Element Mg, Element Pt]",Mg1 As1 Pt5,crystal_system=<CrystalSystem.tet: 'Tetragonal'> symbol='P4/mmm' number=123 point_group='4/mmm' symprec=0.1 version='1.16.2',tet,16.04753721190436,111.20040654992806,181.85766103958747,70.36279267845636,0.32864416524421486,True,True
2411,VBO3,"[Element B, Element O, Element V]",V1 B1 O3,crystal_system=<CrystalSystem.trig: 'Trigonal'> symbol='R-3c' number=167 point_group='-3m' symprec=0.1 version='1.16.2',trig,4.063605840500683,89.69635938619571,181.88622969006855,88.84400962247233,0.2899677736465294,False,True
2412,MgRh3,"[Element Mg, Element Rh]",Mg1 Rh3,crystal_system=<CrystalSystem.ortho: 'Orthorhombic'> symbol='Imm2' number=44 point_group='mm2' symprec=0.1 version='1.16.2',ortho,9.768120970137675,56.6122402106101,181.92908713610635,84.54220354206478,0.298814251332707,True,False
2413,MgPt3,"[Element Mg, Element Pt]",Mg1 Pt3,crystal_system=<CrystalSystem.cubic: 'Cubic'> symbol='Pm-3m' number=221 point_group='m-3m' symprec=0.1 version='1.16.2',cubic,16.665306616405132,60.73654899473046,182.23812084592885,75.8500643692426,0.317247674880636,True,False
2414,Fe,[Element Fe],Fe1,crystal_system=<CrystalSystem.cubic: 'Cubic'> symbol='Im-3m' number=229 point_group='mmm' symprec=0.1 version='1.16.2',cubic,7.902858230744394,23.468168469356993,182.4592408084652,73.60797629829217,0.3221988611422646,True,True
2415,MnRh,"[Element Mn, Element Rh]",Mn1 Rh1,crystal_system=<CrystalSystem.cubic: 'Cubic'> symbol='Pm-3m' number=221 point_group='m-3m' symprec=0.1 version='1.16.2',cubic,9.445564593620427,27.74904245111638,182.50224789381423,81.17955279741602,0.30631146268317166,True,True
2416,Be2Cr,"[Element Be, Element Cr]",Be2 Cr1,crystal_system=<CrystalSystem.hex_: 'Hexagonal'> symbol='P6_3/mmc' number=194 point_group='6/mmm' symprec=0.1 version='1.16.2',hex_,4.065767990849648,114.39090100088167,182.7718219026507,157.67417628691476,0.1649932940062996,True,True
2417,ZrO2,"[Element O, Element Zr]",Zr1 O2,crystal_system=<CrystalSystem.mono: 'Monoclinic'> symbol='P2_1/c' number=14 point_group='2/m' symprec=0.1 version='1.16.2',mono,5.777331384412114,141.66836532722778,183.05128755682853,84.64195093494772,0.29967850263923995,False,True
2418,TiMnRh2,"[Element Mn, Element Rh, Element Ti]",Ti1 Mn1 Rh2,crystal_system=<CrystalSystem.cubic: 'Cubic'> symbol='Fm-3m' number=225 point_group='m-3m' symprec=0.1 version='1.16.2',cubic,8.910585156706565,57.51238446067404,183.0927040642758,71.94494966580086,0.32628232735625634,True,False
2419,YCrO3,"[Element Cr, Element O, Element Y]",Y1 Cr1 O3,crystal_system=<CrystalSystem.ortho: 'Orthorhombic'> symbol='Pnma' number=62 point_group='mmm' symprec=0.1 version='1.16.2',ortho,5.719311184536888,219.38031951097574,183.66401827337197,92.65278381763427,0.28407474528872856,False,True
2420,MgB7,"[Element B, Element Mg]",Mg1 B7,crystal_system=<CrystalSystem.ortho: 'Orthorhombic'> symbol='Imma' number=74 point_group='mmm' symprec=0.1 version='1.16.2',ortho,2.6362961095951865,251.90496067954192,183.75974395536673,183.30856143231685,0.12569097300970933,False,True
2421,Ti2O,"[Element O, Element Ti]",Ti2 O1,crystal_system=<CrystalSystem.trig: 'Trigonal'> symbol='P-3m1' number=164 point_group='-3m' symprec=0.1 version='1.16.2',trig,5.0909565104083105,36.44456112809412,183.78502832083817,106.25028221715186,0.25764275767812533,True,True
2422,V3Ge,"[Element Ge, Element V]",V3 Ge1,crystal_system=<CrystalSystem.cubic: 'Cubic'> symbol='Pm-3n' number=223 point_group='m-3m' symprec=0.1 version='1.16.2',cubic,7.030287059410508,106.50848456615614,183.8080572481369,54.232054227846554,0.36568604787116304,True,True
2423,Ti3SiC2,"[Element C, Element Si, Element Ti]",Ti3 Si1 C2,crystal_system=<CrystalSystem.hex_: 'Hexagonal'> symbol='P6_3/mmc' number=194 point_group='6/mmm' symprec=0.1 version='1.16.2',hex_,4.502114415998194,144.36799404183623,184.068645960595,138.60479020686574,0.1990388584648353,True,True
2424,Al2FeO4,"[Element Al, Element Fe, Element O]",Al2 Fe1 O4,crystal_system=<CrystalSystem.cubic: 'Cubic'> symbol='Fd-3m' number=227 point_group='m-3m' symprec=0.1 version='1.16.2',cubic,4.301896777867103,134.17854118320494,184.080885453734,47.28718359369772,0.3816893327680197,True,True
2425,AlPt,"[Element Al, Element Pt]",Al1 Pt1,crystal_system=<CrystalSystem.cubic: 'Cubic'> symbol='P2_13' number=198 point_group='23' symprec=0.1 version='1.16.2',cubic,12.700357383544183,116.13799235875254,184.17776005848327,73.5869378404288,0.32370732714808464,True,True
2426,ScRh3,"[Element Rh, Element Sc]",Sc1 Rh3,crystal_system=<CrystalSystem.cubic: 'Cubic'> symbol='Pm-3m' number=221 point_group='m-3m' symprec=0.1 version='1.16.2',cubic,9.87338060268794,59.481841178569276,184.31890329700263,84.14822374227415,0.3018814029682827,True,True
2427,MnAlRh2,"[Element Al, Element Mn, Element Rh]",Mn1 Al1 Rh2,crystal_system=<CrystalSystem.cubic: 'Cubic'> symbol='Fm-3m' number=225 point_group='m-3m' symprec=0.1 version='1.16.2',cubic,8.787455203363976,54.37158581935218,184.44847684188795,93.50589230648472,0.2831668058656458,True,True
2428,HfZnN2,"[Element Hf, Element N, Element Zn]",Hf1 Zn1 N2,crystal_system=<CrystalSystem.trig: 'Trigonal'> symbol='P3m1' number=156 point_group='3m' symprec=0.1 version='1.16.2',trig,9.41142197716244,47.97587059517867,184.51799352583527,86.19987642915675,0.2978913089344789,False,False
2429,Mn2AlV,"[Element Al, Element Mn, Element V]",Mn2 Al1 V1,crystal_system=<CrystalSystem.cubic: 'Cubic'> symbol='Fm-3m' number=225 point_group='m-3m' symprec=0.1 version='1.16.2',cubic,5.603132837461857,55.65596939425768,184.52148562181594,97.82915243956985,0.27472341367315833,True,True
2430,TiAlFe2,"[Element Al, Element Fe, Element Ti]",Ti1 Al1 Fe2,crystal_system=<CrystalSystem.cubic: 'Cubic'> symbol='Fm-3m' number=225 point_group='m-3m' symprec=0.1 version='1.16.2',cubic,6.380161358595181,48.54963900787228,184.5604670682485,104.92758502116646,0.2610245520127746,True,True
2431,Si2Ru,"[Element Ru, Element Si]",Si2 Ru1,crystal_system=<CrystalSystem.ortho: 'Orthorhombic'> symbol='Cmce' number=64 point_group='mmm' symprec=0.1 version='1.16.2',ortho,6.239593205782115,334.7715977756878,184.6267284405464,108.22138925402857,0.2548229907396318,False,True
2432,TaSi2,"[Element Si, Element Ta]",Ta1 Si2,crystal_system=<CrystalSystem.hex_: 'Hexagonal'> symbol='P6_422' number=181 point_group='622' symprec=0.1 version='1.16.2',hex_,9.09565966048647,129.86803982308803,184.6430739528097,142.03312361912506,0.19387756850193158,True,True
2433,AlZnRh2,"[Element Al, Element Rh, Element Zn]",Al1 Zn1 Rh2,crystal_system=<CrystalSystem.cubic: 'Cubic'> symbol='Fm-3m' number=225 point_group='m-3m' symprec=0.1 version='1.16.2',cubic,9.349776267022486,52.96119291239688,184.71794395395244,81.04255653222906,0.308620078735518,True,False
2434,TiGaCo2,"[Element Co, Element Ga, Element Ti]",Ti1 Ga1 Co2,crystal_system=<CrystalSystem.cubic: 'Cubic'> symbol='Fm-3m' number=225 point_group='m-3m' symprec=0.1 version='1.16.2',cubic,8.046360765295285,48.591474516275575,184.9154002246213,73.75710817384348,0.3239696423180274,True,True
2435,Mg(BeN)2,"[Element Be, Element Mg, Element N]",Mg1 Be2 N2,crystal_system=<CrystalSystem.trig: 'Trigonal'> symbol='P-3m1' number=164 point_group='-3m' symprec=0.1 version='1.16.2',trig,3.079711246971669,37.92787644928798,184.95001115605623,166.09081679690425,0.15442903519233953,False,True
2436,HfMgIr2,"[Element Hf, Element Ir, Element Mg]",Hf1 Mg1 Ir2,crystal_system=<CrystalSystem.cubic: 'Cubic'> symbol='Fm-3m' number=225 point_group='m-3m' symprec=0.1 version='1.16.2',cubic,15.306266910283847,63.707022832935046,184.95057119653205,98.68125950048302,0.2735050940875449,True,False
2437,NbZnCo2,"[Element Co, Element Nb, Element Zn]",Nb1 Zn1 Co2,crystal_system=<CrystalSystem.cubic: 'Cubic'> symbol='Fm-3m' number=225 point_group='m-3m' symprec=0.1 version='1.16.2',cubic,8.920965269068166,51.40818338996176,184.9904509557636,56.300296172594635,0.36184465713151115,True,False
2438,NaSi2N3,"[Element N, Element Na, Element Si]",Na1 Si2 N3,crystal_system=<CrystalSystem.ortho: 'Orthorhombic'> symbol='Cmc2_1' number=36 point_group='mm2' symprec=0.1 version='1.16.2',ortho,3.1835459937258674,126.4159952207778,185.02565118543765,116.05974947816713,0.24060482248978304,False,True
2439,BaNb4O6,"[Element Ba, Element Nb, Element O]",Ba1 Nb4 O6,crystal_system=<CrystalSystem.tet: 'Tetragonal'> symbol='P4/mmm' number=123 point_group='4/mmm' symprec=0.1 version='1.16.2',tet,6.802210302967415,147.67866181956387,185.07769522610175,109.38461672656499,0.2531258579238152,True,True
2440,VSbO4,"[Element O, Element Sb, Element V]",V1 Sb1 O4,crystal_system=<CrystalSystem.tet: 'Tetragonal'> symbol='I4_1md' number=109 point_group='m' symprec=0.1 version='1.16.2',tet,5.94239454971778,264.57220185605274,185.2125117081859,100.5518226090566,0.27014602243089914,True,True
2441,Ta3Sb,"[Element Sb, Element Ta]",Ta3 Sb1,crystal_system=<CrystalSystem.cubic: 'Cubic'> symbol='Pm-3n' number=223 point_group='m-3m' symprec=0.1 version='1.16.2',cubic,15.036619985849331,146.78834858673545,185.23863583505732,84.16655241251789,0.3026984070871129,True,True
2442,ZrRu,"[Element Ru, Element Zr]",Zr1 Ru1,crystal_system=<CrystalSystem.cubic: 'Cubic'> symbol='Pm-3m' number=221 point_group='m-3m' symprec=0.1 version='1.16.2',cubic,9.199433314788953,34.709931399737066,185.33991831589026,80.95719483228271,0.3093560649402234,True,True
2443,TbRhO3,"[Element O, Element Rh, Element Tb]",Tb1 Rh1 O3,crystal_system=<CrystalSystem.ortho: 'Orthorhombic'> symbol='Pnma' number=62 point_group='mmm' symprec=0.1 version='1.16.2',ortho,8.964942818652476,229.55338451111137,185.50505892391445,67.4212107717145,0.33791325818366735,False,True
2444,Al23B50,"[Element Al, Element B]",Al23 B50,crystal_system=<CrystalSystem.tri: 'Triclinic'> symbol='P-1' number=2 point_group='-1' symprec=0.1 version='1.16.2',tri,3.0976373467394454,622.4402187339572,185.61598616629095,122.18883759998539,0.2300834690359039,True,False
2445,MgTaRh2,"[Element Mg, Element Rh, Element Ta]",Mg1 Ta1 Rh2,crystal_system=<CrystalSystem.cubic: 'Cubic'> symbol='Fm-3m' number=225 point_group='m-3m' symprec=0.1 version='1.16.2',cubic,11.190368018912984,60.99778224045217,185.8622480286835,-56.70074740531475,0.6698013553415102,True,False
2446,MgGaIr2,"[Element Ga, Element Ir, Element Mg]",Mg1 Ga1 Ir2,crystal_system=<CrystalSystem.cubic: 'Cubic'> symbol='Fm-3m' number=225 point_group='m-3m' symprec=0.1 version='1.16.2',cubic,14.102439036385173,56.33811575669265,185.98354367851445,96.1550163973604,0.27949659177826386,True,False
2447,ScNbTc2,"[Element Nb, Element Sc, Element Tc]",Sc1 Nb1 Tc2,crystal_system=<CrystalSystem.cubic: 'Cubic'> symbol='Fm-3m' number=225 point_group='m-3m' symprec=0.1 version='1.16.2',cubic,8.449720684994892,65.61061594794619,186.00736571144034,65.64843789770627,0.3421078897987339,True,False
2448,Zr(CoSi)2,"[Element Co, Element Si, Element Zr]",Zr1 Co2 Si2,crystal_system=<CrystalSystem.tet: 'Tetragonal'> symbol='I4/mmm' number=139 point_group='4/mmm' symprec=0.1 version='1.16.2',tet,6.63269700760993,66.40992351229728,186.22644722345365,108.59856389807723,0.25587705738833505,True,True
2449,AlCr2,"[Element Al, Element Cr]",Al1 Cr2,crystal_system=<CrystalSystem.tet: 'Tetragonal'> symbol='I4/mmm' number=139 point_group='4/mmm' symprec=0.1 version='1.16.2',tet,5.870884090603154,37.0450184823207,186.2669254753526,102.67671400216594,0.26716506119725486,True,True
2450,V3Au,"[Element Au, Element V]",V3 Au1,crystal_system=<CrystalSystem.cubic: 'Cubic'> symbol='Pm-3n' number=223 point_group='m-3m' symprec=0.1 version='1.16.2',cubic,10.162619396562913,114.30945360774247,186.33358737424632,72.74330345863893,0.3272798097635587,True,True
2451,ZrIr,"[Element Ir, Element Zr]",Zr1 Ir1,crystal_system=<CrystalSystem.ortho: 'Orthorhombic'> symbol='Cmcm' number=63 point_group='mmm' symprec=0.1 version='1.16.2',ortho,12.841352541868668,146.60912144311544,186.55434235862435,64.79463448322527,0.34435782006072846,True,True
2452,FeNi,"[Element Fe, Element Ni]",Fe1 Ni1,crystal_system=<CrystalSystem.tet: 'Tetragonal'> symbol='P4/mmm' number=123 point_group='4/mmm' symprec=0.1 version='1.16.2',tet,8.535536782713221,44.565559886299106,186.63083912697488,91.94168526220088,0.28842391618285884,True,True
2453,Mn2VGa,"[Element Ga, Element Mn, Element V]",Mn2 V1 Ga1,crystal_system=<CrystalSystem.cubic: 'Cubic'> symbol='Fm-3m' number=225 point_group='m-3m' symprec=0.1 version='1.16.2',cubic,6.8885421264045394,55.573682951667784,186.6525811524648,82.55029345944283,0.3072779901970447,True,True
2454,GaCuPt2,"[Element Cu, Element Ga, Element Pt]",Ga1 Cu1 Pt2,crystal_system=<CrystalSystem.tet: 'Tetragonal'> symbol='P4/mmm' number=123 point_group='4/mmm' symprec=0.1 version='1.16.2',tet,15.536142528775713,55.946164615445134,186.77412871093162,71.83756259020649,0.32954259582090956,True,True
2455,Ta2Be,"[Element Be, Element Ta]",Ta2 Be1,crystal_system=<CrystalSystem.tet: 'Tetragonal'> symbol='I4/mcm' number=140 point_group='4/mmm' symprec=0.1 version='1.16.2',tet,13.872037325446222,88.79836657783719,186.81799206109815,116.68466313589406,0.24151970580231924,True,True
2456,Re3P4,"[Element P, Element Re]",Re3 P4,crystal_system=<CrystalSystem.mono: 'Monoclinic'> symbol='C2/m' number=12 point_group='2/m' symprec=0.1 version='1.16.2',mono,11.090144341162606,102.19385126295204,186.93154947736366,137.01445318283584,0.20547578227538352,True,True
2457,Fe3Co,"[Element Co, Element Fe]",Fe3 Co1,crystal_system=<CrystalSystem.tet: 'Tetragonal'> symbol='P4/mmm' number=123 point_group='4/mmm' symprec=0.1 version='1.16.2',tet,8.21480064690456,45.778260642464964,186.98162015139118,96.19530892026884,0.28042285328903055,True,True
2458,ZrAsRu,"[Element As, Element Ru, Element Zr]",Zr1 As1 Ru1,crystal_system=<CrystalSystem.hex_: 'Hexagonal'> symbol='P-62m' number=189 point_group='-6m2' symprec=0.1 version='1.16.2',hex_,9.000483988148504,147.8993608307848,187.04208633718164,83.73547461769769,0.3052245847808967,True,True
2459,TiSiRh,"[Element Rh, Element Si, Element Ti]",Ti1 Si1 Rh1,crystal_system=<CrystalSystem.ortho: 'Orthorhombic'> symbol='Pnma' number=62 point_group='mmm' symprec=0.1 version='1.16.2',ortho,6.902528599195851,172.1112442234827,187.06966816021745,88.3864046964918,0.29590433495723284,True,True
2460,Fe3PdN,"[Element Fe, Element N, Element Pd]",Fe3 Pd1 N1,crystal_system=<CrystalSystem.cubic: 'Cubic'> symbol='Pm-3m' number=221 point_group='m-3m' symprec=0.1 version='1.16.2',cubic,8.377713149712525,57.07663224909501,187.480450633182,85.45882316011897,0.3021481708530583,True,True
2461,Hf2FeIr,"[Element Fe, Element Hf, Element Ir]",Hf2 Fe1 Ir1,crystal_system=<CrystalSystem.cubic: 'Cubic'> symbol='Fm-3m' number=225 point_group='m-3m' symprec=0.1 version='1.16.2',cubic,15.13037238532839,66.40258761298102,187.83598703197788,65.43739852554921,0.3439354130104451,True,False
2462,AlFeCo2,"[Element Al, Element Co, Element Fe]",Al1 Fe1 Co2,crystal_system=<CrystalSystem.cubic: 'Cubic'> symbol='Fm-3m' number=225 point_group='m-3m' symprec=0.1 version='1.16.2',cubic,7.374150017976933,45.19279476525925,187.92685090421605,98.10957885535672,0.2776604284242681,True,True
2463,Hf2CoRe,"[Element Co, Element Hf, Element Re]",Hf2 Co1 Re1,crystal_system=<CrystalSystem.cubic: 'Cubic'> symbol='Fm-3m' number=225 point_group='m-3m' symprec=0.1 version='1.16.2',cubic,15.055901993391686,66.40878155457972,188.0018006578362,87.98547388077688,0.2975765985248828,True,False
2464,MnGeRh2,"[Element Ge, Element Mn, Element Rh]",Mn1 Ge1 Rh2,crystal_system=<CrystalSystem.cubic: 'Cubic'> symbol='Fm-3m' number=225 point_group='m-3m' symprec=0.1 version='1.16.2',cubic,10.044084394013307,55.11757088868522,188.04098989156287,13.755303717481212,0.46429532563128645,True,True
2465,Ti2MnRu,"[Element Mn, Element Ru, Element Ti]",Ti2 Mn1 Ru1,crystal_system=<CrystalSystem.cubic: 'Cubic'> symbol='Fm-3m' number=225 point_group='m-3m' symprec=0.1 version='1.16.2',cubic,7.414827676156067,56.37723743365341,188.0566237323731,79.82790521758503,0.31406479616589633,True,False
2466,P2W,"[Element P, Element W]",P2 W1,crystal_system=<CrystalSystem.ortho: 'Orthorhombic'> symbol='Cmc2_1' number=36 point_group='mm2' symprec=0.1 version='1.16.2',ortho,9.20543341814556,88.67367067809505,188.09355014013266,132.4863029616192,0.21478346744514562,True,True
2467,Al2CoRu,"[Element Al, Element Co, Element Ru]",Al2 Co1 Ru1,crystal_system=<CrystalSystem.cubic: 'Cubic'> symbol='Fm-3m' number=225 point_group='m-3m' symprec=0.1 version='1.16.2',cubic,7.208416972213532,49.289511870976796,188.1581945657527,111.19771290073155,0.2531398428040958,True,False
2468,UC,"[Element C, Element U]",U1 C1,crystal_system=<CrystalSystem.cubic: 'Cubic'> symbol='Fm-3m' number=225 point_group='m-3m' symprec=0.1 version='1.16.2',cubic,13.80690393691238,30.071951141225853,188.27389006965205,36.04511721530761,0.4100172002271362,True,True
2469,NbP,"[Element Nb, Element P]",Nb1 P1,crystal_system=<CrystalSystem.tet: 'Tetragonal'> symbol='I4_1md' number=109 point_group='4mm' symprec=0.1 version='1.16.2',tet,6.387205680425864,64.41246005193307,188.32973218263282,109.20994289741722,0.2570229554417685,False,True
2470,ThO2,"[Element O, Element Th]",Th1 O2,crystal_system=<CrystalSystem.cubic: 'Cubic'> symbol='Fm-3m' number=225 point_group='m-3m' symprec=0.1 version='1.16.2',cubic,9.981284074654347,43.92656473586823,188.34235767368557,88.1171248256027,0.2976316904074599,False,True
2471,HfSiMo,"[Element Hf, Element Mo, Element Si]",Hf1 Si1 Mo1,crystal_system=<CrystalSystem.ortho: 'Orthorhombic'> symbol='Pnma' number=62 point_group='mmm' symprec=0.1 version='1.16.2',ortho,10.193772265360817,197.11596175598947,188.5082290500559,103.86151769249997,0.26726099908890816,True,True
2472,AlCr2C,"[Element Al, Element C, Element Cr]",Al1 Cr2 C1,crystal_system=<CrystalSystem.hex_: 'Hexagonal'> symbol='P6_3/mmc' number=194 point_group='6/mmm' symprec=0.1 version='1.16.2',hex_,5.45194410649955,87.09966264258458,188.81293460370034,133.77304557192437,0.21343020182435807,True,True