,Formula,Elements,Composition,Symmetry,Crystal system,Density [g/m$^3$],Volume [$\mathring{A}^3$],Bulk modulus[GPa],Shear modulus [GPa],Poisson,Metal,Experimental report
754,AcN,"[Element Ac, Element N]",Ac1 N1,crystal_system=<CrystalSystem.hex_: 'Hexagonal'> symbol='P6_3mc' number=186 point_group='6mm' symprec=0.1 version='1.16.2',hex_,8.01361833485228,99.88023485516378,77.41839533477487,18.428649633277374,0.3897297291641979,False,False
755,YNiBi,"[Element Bi, Element Ni, Element Y]",Y1 Ni1 Bi1,crystal_system=<CrystalSystem.cubic: 'Cubic'> symbol='F-43m' number=216 point_group='-43m' symprec=0.1 version='1.16.2',cubic,8.81365465385654,67.1814885463508,77.46699877274881,48.01282489272751,0.24316801850895073,False,True
756,LaSi2,"[Element La, Element Si]",La1 Si2,crystal_system=<CrystalSystem.tet: 'Tetragonal'> symbol='I4_1/amd' number=141 point_group='4/mmm' symprec=0.1 version='1.16.2',tet,4.943667458328539,131.04930788323887,77.53835498983369,36.0663491766436,0.2986480608013367,True,True
757,Ga2Cu,"[Element Cu, Element Ga]",Ga2 Cu1,crystal_system=<CrystalSystem.tet: 'Tetragonal'> symbol='P4/mmm' number=123 point_group='4/mmm' symprec=0.1 version='1.16.2',tet,7.41154853982418,45.47985409473733,77.5441226582703,37.03884212136392,0.29397777329574143,True,True
758,Li3CuO3,"[Element Cu, Element Li, Element O]",Li3 Cu1 O3,crystal_system=<CrystalSystem.tet: 'Tetragonal'> symbol='P4_2/mnm' number=136 point_group='4/mmm' symprec=0.1 version='1.16.2',tet,3.3129160556126505,265.3866298411937,77.80837316985708,34.57442331378335,0.30648610656452363,False,True
759,Sr(FeAs)2,"[Element As, Element Fe, Element Sr]",Sr1 Fe2 As2,crystal_system=<CrystalSystem.tet: 'Tetragonal'> symbol='I4/mmm' number=139 point_group='4/mmm' symprec=0.1 version='1.16.2',tet,6.452148616584332,89.85883048914191,77.85301701335004,42.079124199815936,0.2710089096156702,True,True
760,ScHO2,"[Element H, Element O, Element Sc]",Sc1 H1 O2,crystal_system=<CrystalSystem.ortho: 'Orthorhombic'> symbol='Cmc2_1' number=36 point_group='mm2' symprec=0.1 version='1.16.2',ortho,3.0516965941871743,84.8446268402528,77.89172255451558,48.722329300137666,0.24120346413833535,False,False
761,MgAl2Cu,"[Element Al, Element Cu, Element Mg]",Mg1 Al2 Cu1,crystal_system=<CrystalSystem.ortho: 'Orthorhombic'> symbol='Cmcm' number=63 point_group='mmm' symprec=0.1 version='1.16.2',ortho,3.6411054216010457,129.34962771876073,77.94523551875302,48.12873105112349,0.24396382327756702,True,True
762,Mg2H6Os,"[Element H, Element Mg, Element Os]",Mg2 H6 Os1,crystal_system=<CrystalSystem.cubic: 'Cubic'> symbol='Fm-3m' number=225 point_group='m-3m' symprec=0.1 version='1.16.2',cubic,5.568010147812302,73.03246264866269,77.99093083910856,54.471659400318586,0.2167305921217485,False,True
763,LiIn2Pt,"[Element In, Element Li, Element Pt]",Li1 In2 Pt1,crystal_system=<CrystalSystem.cubic: 'Cubic'> symbol='Fm-3m' number=225 point_group='m-3m' symprec=0.1 version='1.16.2',cubic,10.235893442409443,70.02710198777686,78.03996103130055,26.70814097637337,0.3464037305524882,True,True
764,MgAg3,"[Element Ag, Element Mg]",Mg1 Ag3,crystal_system=<CrystalSystem.hex_: 'Hexagonal'> symbol='P6_3/mmc' number=194 point_group='6/mmm' symprec=0.1 version='1.16.2',hex_,8.272217238376555,139.67657419948463,78.1047252896436,28.501846589579518,0.33732814504824005,True,False
765,Li2O,"[Element Li, Element O]",Li2 O1,crystal_system=<CrystalSystem.cubic: 'Cubic'> symbol='Fm-3m' number=225 point_group='m-3m' symprec=0.1 version='1.16.2',cubic,1.969302476050398,25.196348792602333,78.13029479834442,69.69619084724823,0.15620279590121794,False,True
766,Sc2ZnGa,"[Element Ga, Element Sc, Element Zn]",Sc2 Zn1 Ga1,crystal_system=<CrystalSystem.cubic: 'Cubic'> symbol='Fm-3m' number=225 point_group='m-3m' symprec=0.1 version='1.16.2',cubic,5.045151718748179,74.06993531242644,78.17653612535372,46.00084496002117,0.2540328808531651,True,False
767,MgAlAg2,"[Element Ag, Element Al, Element Mg]",Mg1 Al1 Ag2,crystal_system=<CrystalSystem.cubic: 'Cubic'> symbol='Fm-3m' number=225 point_group='m-3m' symprec=0.1 version='1.16.2',cubic,6.596248961474187,67.22032837349694,78.18385764156233,23.25773865128196,0.3646805743219136,True,False
768,ScAl,"[Element Al, Element Sc]",Sc1 Al1,crystal_system=<CrystalSystem.cubic: 'Cubic'> symbol='Pm-3m' number=221 point_group='m-3m' symprec=0.1 version='1.16.2',cubic,3.1201791359654427,38.28464388341792,78.18779380869883,41.13768912060786,0.276183191604769,True,True
769,LiYF4,"[Element F, Element Li, Element Y]",Li1 Y1 F4,crystal_system=<CrystalSystem.tet: 'Tetragonal'> symbol='I4_1/a' number=88 point_group='4/m' symprec=0.1 version='1.16.2',tet,4.022369457807778,141.8804536456185,78.21386851805732,31.33926153111433,0.32326212854401226,False,True
770,Ca(CuGe)2,"[Element Ca, Element Cu, Element Ge]",Ca1 Cu2 Ge2,crystal_system=<CrystalSystem.tet: 'Tetragonal'> symbol='I4/mmm' number=139 point_group='4/mmm' symprec=0.1 version='1.16.2',tet,6.0235614149811205,86.13433077461137,78.2551582863353,37.57446416030389,0.29304652691260386,True,True
771,YSnAu,"[Element Au, Element Sn, Element Y]",Y1 Sn1 Au1,crystal_system=<CrystalSystem.hex_: 'Hexagonal'> symbol='P6_3mc' number=186 point_group='6mm' symprec=0.1 version='1.16.2',hex_,9.511817533363464,141.2611017931221,78.3605063532154,41.89579735813247,0.2731088709719159,True,True
772,Sc2AgHg,"[Element Ag, Element Hg, Element Sc]",Sc2 Ag1 Hg1,crystal_system=<CrystalSystem.cubic: 'Cubic'> symbol='Fm-3m' number=225 point_group='m-3m' symprec=0.1 version='1.16.2',cubic,7.9821222663579725,82.87382299346916,78.36481443473006,32.118620930864,0.3197021858410477,True,False
773,Ca4(H4Rh)3,"[Element Ca, Element H, Element Rh]",Ca4 H12 Rh3,crystal_system=<CrystalSystem.cubic: 'Cubic'> symbol='Im-3m' number=229 point_group='m-3m' symprec=0.1 version='1.16.2',cubic,4.157610517243018,192.15961409729266,78.43966933593515,41.22502277591312,0.27639172326871886,True,True
774,YNi,"[Element Ni, Element Y]",Y1 Ni1,crystal_system=<CrystalSystem.ortho: 'Orthorhombic'> symbol='Pnma' number=62 point_group='mmm' symprec=0.1 version='1.16.2',ortho,6.114185080635672,160.3447181225193,78.48631428415845,24.312168733064887,0.3596139005718938,True,True
775,Cu3PS4,"[Element Cu, Element P, Element S]",Cu3 P1 S4,crystal_system=<CrystalSystem.ortho: 'Orthorhombic'> symbol='Pmn2_1' number=31 point_group='mm2' symprec=0.1 version='1.16.2',ortho,4.2484982355890315,273.49698499786626,78.60649183858753,35.68455915034052,0.3028506692678128,False,True
776,YIn2Ni,"[Element In, Element Ni, Element Y]",Y1 In2 Ni1,crystal_system=<CrystalSystem.ortho: 'Orthorhombic'> symbol='Cmcm' number=63 point_group='mmm' symprec=0.1 version='1.16.2',ortho,7.586387319415705,165.14154723433322,78.61190570202292,40.52282303644093,0.280052990136231,True,True
777,LiPd,"[Element Li, Element Pd]",Li1 Pd1,crystal_system=<CrystalSystem.hex_: 'Hexagonal'> symbol='P-6m2' number=187 point_group='-6m2' symprec=0.1 version='1.16.2',hex_,6.86800390931238,27.408308383984178,78.69800525652497,33.28940724813661,0.31463554693593065,True,True
778,BaCoO2,"[Element Ba, Element Co, Element O]",Ba1 Co1 O2,crystal_system=<CrystalSystem.trig: 'Trigonal'> symbol='P3_121' number=152 point_group='32' symprec=0.1 version='1.16.2',trig,5.615032013268026,202.50978673214274,78.73636087631766,30.53513366909847,0.32828980834407584,False,True
779,YZn12,"[Element Y, Element Zn]",Y1 Zn12,crystal_system=<CrystalSystem.tet: 'Tetragonal'> symbol='I4/mmm' number=139 point_group='4/mmm' symprec=0.1 version='1.16.2',tet,7.388836224064127,196.37761493961617,78.74341883932107,51.564751758593005,0.23124228908250247,True,True
780,Li5(NiN)3,"[Element Li, Element N, Element Ni]",Li5 Ni3 N3,crystal_system=<CrystalSystem.hex_: 'Hexagonal'> symbol='P-62m' number=189 point_group='-6m2' symprec=0.1 version='1.16.2',hex_,3.3801071979954074,124.19519627735288,78.76283373591087,46.57752311094665,0.2530057389016504,True,True
781,Li2Si2O5,"[Element Li, Element O, Element Si]",Li2 Si2 O5,crystal_system=<CrystalSystem.ortho: 'Orthorhombic'> symbol='Ccc2' number=37 point_group='mm2' symprec=0.1 version='1.16.2',ortho,2.469345038000238,201.80564733481847,78.80539403791403,49.713687281859634,0.23938222150554783,False,True
782,PmCu3,"[Element Cu, Element Pm]",Pm1 Cu3,crystal_system=<CrystalSystem.hex_: 'Hexagonal'> symbol='P6_3/mmc' number=194 point_group='6/mmm' symprec=0.1 version='1.16.2',hex_,7.973132821784786,139.80452193463654,78.84140107782198,22.018027350902592,0.3722566872278285,True,False
783,Y3GaC,"[Element C, Element Ga, Element Y]",Y3 Ga1 C1,crystal_system=<CrystalSystem.cubic: 'Cubic'> symbol='Pm-3m' number=221 point_group='m-3m' symprec=0.1 version='1.16.2',cubic,5.058421007866305,114.38686351547275,78.87193109822391,63.93007567071979,0.18093018933784713,True,True
784,TiZn16,"[Element Ti, Element Zn]",Ti1 Zn16,crystal_system=<CrystalSystem.ortho: 'Orthorhombic'> symbol='Cmcm' number=63 point_group='mmm' symprec=0.1 version='1.16.2',ortho,7.370760544020469,493.11389498091006,78.94729526486341,27.92526359200827,0.34179345706196357,True,True
785,Th2BiTe,"[Element Bi, Element Te, Element Th]",Th2 Bi1 Te1,crystal_system=<CrystalSystem.cubic: 'Cubic'> symbol='Fm-3m' number=225 point_group='m-3m' symprec=0.1 version='1.16.2',cubic,11.183784416130539,118.87938652236674,79.27864261771104,46.044028817459534,0.25670686991709024,True,False
786,BaAl9Fe2,"[Element Al, Element Ba, Element Fe]",Ba1 Al9 Fe2,crystal_system=<CrystalSystem.hex_: 'Hexagonal'> symbol='P6/mmm' number=191 point_group='6/mmm' symprec=0.1 version='1.16.2',hex_,3.78549225653646,215.7546474009406,79.30069908428311,45.03553735910464,0.26124312295426655,True,True
787,Sc3BPb,"[Element B, Element Pb, Element Sc]",Sc3 B1 Pb1,crystal_system=<CrystalSystem.cubic: 'Cubic'> symbol='Pm-3m' number=221 point_group='m-3m' symprec=0.1 version='1.16.2',cubic,5.724184047217281,102.36724082715106,79.3211644455473,65.77979448149429,0.1751543303853381,True,True
788,Mg2FeH6,"[Element Fe, Element H, Element Mg]",Mg2 Fe1 H6,crystal_system=<CrystalSystem.cubic: 'Cubic'> symbol='Fm-3m' number=225 point_group='m-3m' symprec=0.1 version='1.16.2',cubic,2.859714273790479,64.16513438568785,79.33393525055925,60.887106677039355,0.19443276007322374,False,True
789,Ca2NbN3,"[Element Ca, Element N, Element Nb]",Ca2 Nb1 N3,crystal_system=<CrystalSystem.ortho: 'Orthorhombic'> symbol='Cmce' number=64 point_group='mmm' symprec=0.1 version='1.16.2',ortho,3.787361905648622,377.20489298742876,79.3581733624887,-1.3172569826200764,0.5083456171439823,False,False
790,LiBiPd2,"[Element Bi, Element Li, Element Pd]",Li1 Bi1 Pd2,crystal_system=<CrystalSystem.cubic: 'Cubic'> symbol='Fm-3m' number=225 point_group='m-3m' symprec=0.1 version='1.16.2',cubic,10.382816651837901,68.57243836855,79.3805269348168,12.475464528086114,0.4253315082088724,True,False
791,Ca7SiN6,"[Element Ca, Element N, Element Si]",Ca7 Si1 N6,crystal_system=<CrystalSystem.ortho: 'Orthorhombic'> symbol='Pbcn' number=60 point_group='mmm' symprec=0.1 version='1.16.2',ortho,3.004270533805523,868.1597623930159,79.40224815078355,53.81578626009974,0.22357037248733103,False,False
792,ErAs,"[Element As, Element Er]",Er1 As1,crystal_system=<CrystalSystem.cubic: 'Cubic'> symbol='Fm-3m' number=225 point_group='m-3m' symprec=0.1 version='1.16.2',cubic,8.467903121451629,47.491137027048126,79.44403472775738,54.14983398531803,0.22229139520007524,True,True
793,ScCdAg2,"[Element Ag, Element Cd, Element Sc]",Sc1 Cd1 Ag2,crystal_system=<CrystalSystem.cubic: 'Cubic'> symbol='Fm-3m' number=225 point_group='m-3m' symprec=0.1 version='1.16.2',cubic,8.164392940703461,75.88471426516944,79.44928496234168,25.04244222095827,0.35738402764306365,True,False
794,MgAu,"[Element Au, Element Mg]",Mg1 Au1,crystal_system=<CrystalSystem.cubic: 'Cubic'> symbol='Pm-3m' number=221 point_group='m-3m' symprec=0.1 version='1.16.2',cubic,10.474231076199365,35.07943275065701,79.49470363802271,29.884736925386278,0.3329645718980907,True,True
795,Li4SiO4,"[Element Li, Element O, Element Si]",Li4 Si1 O4,crystal_system=<CrystalSystem.tri: 'Triclinic'> symbol='P-1' number=2 point_group='-1' symprec=0.1 version='1.16.2',tri,2.447366890408959,162.632576544714,79.51283380976764,52.7145785387342,0.22851147937464264,False,True
796,YAl2,"[Element Al, Element Y]",Y1 Al2,crystal_system=<CrystalSystem.cubic: 'Cubic'> symbol='Fd-3m' number=227 point_group='m-3m' symprec=0.1 version='1.16.2',cubic,3.9251375531042885,120.88209995657598,79.60995905875815,60.52102063872792,0.19673873831440952,True,True
797,LaS,"[Element La, Element S]",La1 S1,crystal_system=<CrystalSystem.cubic: 'Cubic'> symbol='Fm-3m' number=225 point_group='m-3m' symprec=0.1 version='1.16.2',cubic,5.576868526033274,50.90726871983451,79.61989530444234,39.27746601898652,0.28817573050141315,True,True
798,BaPPt,"[Element Ba, Element P, Element Pt]",Ba1 P1 Pt1,crystal_system=<CrystalSystem.cubic: 'Cubic'> symbol='P2_13' number=198 point_group='23' symprec=0.1 version='1.16.2',cubic,8.444611338325844,285.8223164254098,79.63118131162469,31.279558807098375,0.32633601296921977,True,True
799,Y3AlC,"[Element Al, Element C, Element Y]",Y3 Al1 C1,crystal_system=<CrystalSystem.cubic: 'Cubic'> symbol='Pm-3m' number=221 point_group='m-3m' symprec=0.1 version='1.16.2',cubic,4.3510529292231706,116.67131043219946,79.64670404288435,63.381430835676014,0.18552639245847063,True,True
800,KYO2,"[Element K, Element O, Element Y]",K1 Y1 O2,crystal_system=<CrystalSystem.trig: 'Trigonal'> symbol='R-3m' number=166 point_group='-3m' symprec=0.1 version='1.16.2',trig,4.145686844635891,64.0885718587318,79.67419625323595,50.08192678369179,0.24015317597396563,False,True
801,MgMnGe,"[Element Ge, Element Mg, Element Mn]",Mg1 Mn1 Ge1,crystal_system=<CrystalSystem.tet: 'Tetragonal'> symbol='P4/nmm' number=129 point_group='4/mmm' symprec=0.1 version='1.16.2',tet,4.795938304570762,105.1755522110447,79.68256465203086,49.222253234650125,0.24387416873836987,True,True
802,Li4TiO4,"[Element Li, Element O, Element Ti]",Li4 Ti1 O4,crystal_system=<CrystalSystem.ortho: 'Orthorhombic'> symbol='Cmcm' number=63 point_group='mmm' symprec=0.1 version='1.16.2',ortho,2.6246173708762037,176.6800354881907,79.76133739215446,42.66863774553286,0.2730010459699313,False,True
803,Ca3GaN3,"[Element Ca, Element Ga, Element N]",Ca3 Ga1 N3,crystal_system=<CrystalSystem.hex_: 'Hexagonal'> symbol='P6_3/m' number=176 point_group='6/m' symprec=0.1 version='1.16.2',hex_,3.4140310056522885,225.6611240312838,79.86605990156454,51.47612423193043,0.23472688827692745,False,False
804,Ca2ZnN2,"[Element Ca, Element N, Element Zn]",Ca2 Zn1 N2,crystal_system=<CrystalSystem.tet: 'Tetragonal'> symbol='I4/mmm' number=139 point_group='4/mmm' symprec=0.1 version='1.16.2',tet,3.5839568548677283,80.42332148235616,79.90561919985024,45.20414735222901,0.2620174720364366,False,True
805,YAlGe,"[Element Al, Element Ge, Element Y]",Y1 Al1 Ge1,crystal_system=<CrystalSystem.ortho: 'Orthorhombic'> symbol='Cmcm' number=63 point_group='mmm' symprec=0.1 version='1.16.2',ortho,5.154441775451049,121.47080422379386,79.97704701151929,54.24763791947174,0.22339453862536,True,True
806,YCu2,"[Element Cu, Element Y]",Y1 Cu2,crystal_system=<CrystalSystem.ortho: 'Orthorhombic'> symbol='Imma' number=74 point_group='mmm' symprec=0.1 version='1.16.2',ortho,6.775255397083037,105.87729825831418,79.99769658960572,21.781799321920875,0.3751878031679498,True,True
807,V3Se4,"[Element Se, Element V]",V3 Se4,crystal_system=<CrystalSystem.mono: 'Monoclinic'> symbol='C2/m' number=12 point_group='2/m' symprec=0.1 version='1.16.2',mono,6.102751891055088,127.5220958137311,80.00974868542002,54.4577544032453,0.22261379457358899,True,True
808,DyNiBi,"[Element Bi, Element Dy, Element Ni]",Dy1 Ni1 Bi1,crystal_system=<CrystalSystem.cubic: 'Cubic'> symbol='F-43m' number=216 point_group='-43m' symprec=0.1 version='1.16.2',cubic,10.729222329551504,66.57708996861048,80.08825879061114,48.98272765164429,0.24598193431082233,False,True
809,YZrSb,"[Element Sb, Element Y, Element Zr]",Y1 Zr1 Sb1,crystal_system=<CrystalSystem.tet: 'Tetragonal'> symbol='I4/mmm' number=139 point_group='4/mmm' symprec=0.1 version='1.16.2',tet,6.581784737801567,152.32946980349195,80.08935513445019,41.29920481509899,0.2799857661915518,True,True
810,LiFeP,"[Element Fe, Element Li, Element P]",Li1 Fe1 P1,crystal_system=<CrystalSystem.tet: 'Tetragonal'> symbol='P4/nmm' number=129 point_group='4/mmm' symprec=0.1 version='1.16.2',tet,3.9725993859851902,78.3828081056339,80.32885250048186,51.419662788809816,0.23622485148690558,True,True
811,LiVN2,"[Element Li, Element N, Element V]",Li1 V1 N2,crystal_system=<CrystalSystem.ortho: 'Orthorhombic'> symbol='Pna2_1' number=33 point_group='mm2' symprec=0.1 version='1.16.2',ortho,3.1737215196152464,179.76813243281472,80.34737049234454,45.61227656416529,0.26132088779881296,False,False
812,LiGa2Pd,"[Element Ga, Element Li, Element Pd]",Li1 Ga2 Pd1,crystal_system=<CrystalSystem.cubic: 'Cubic'> symbol='Fm-3m' number=225 point_group='m-3m' symprec=0.1 version='1.16.2',cubic,7.342685696145803,57.17198272973856,80.35515065661112,2.7894995170776458,0.4828412371776628,True,True
813,Li7MnN4,"[Element Li, Element Mn, Element N]",Li7 Mn1 N4,crystal_system=<CrystalSystem.cubic: 'Cubic'> symbol='P-43n' number=218 point_group='-43m' symprec=0.1 version='1.16.2',cubic,2.5035441906349343,846.6144045283733,80.37436548071244,69.26667031434269,0.1652595652322842,False,True
814,AlCuS2,"[Element Al, Element Cu, Element S]",Al1 Cu1 S2,crystal_system=<CrystalSystem.tet: 'Tetragonal'> symbol='I-42d' number=122 point_group='-42m' symprec=0.1 version='1.16.2',tet,3.5077372781402407,146.42766229382923,80.44008328336307,35.18701014307408,0.3091170726731872,False,True
815,ScGe2,"[Element Ge, Element Sc]",Sc1 Ge2,crystal_system=<CrystalSystem.ortho: 'Orthorhombic'> symbol='Cmcm' number=63 point_group='mmm' symprec=0.1 version='1.16.2',ortho,5.723373479287294,110.38740172714243,80.50528797676101,55.90269796032101,0.2180604787830137,True,True
816,ScSe,"[Element Sc, Element Se]",Sc1 Se1,crystal_system=<CrystalSystem.cubic: 'Cubic'> symbol='Fm-3m' number=225 point_group='m-3m' symprec=0.1 version='1.16.2',cubic,5.034683801251302,40.869937611221395,80.51432054547186,36.841435521055104,0.30148976075579725,True,True
817,Sn2Pd,"[Element Pd, Element Sn]",Sn2 Pd1,crystal_system=<CrystalSystem.tet: 'Tetragonal'> symbol='I4_1/acd' number=142 point_group='4/mmm' symprec=0.1 version='1.16.2',tet,8.676381906230544,526.449627349608,80.65010824837412,29.929250130213518,0.3348758812944837,True,True
818,SbTePd,"[Element Pd, Element Sb, Element Te]",Sb1 Te1 Pd1,crystal_system=<CrystalSystem.cubic: 'Cubic'> symbol='P2_13' number=198 point_group='23' symprec=0.1 version='1.16.2',cubic,8.195296488811758,288.35397958889786,80.65300515616008,31.407595824461197,0.3276622243152917,True,True
819,MgSbPd,"[Element Mg, Element Pd, Element Sb]",Mg1 Sb1 Pd1,crystal_system=<CrystalSystem.cubic: 'Cubic'> symbol='F-43m' number=216 point_group='-43m' symprec=0.1 version='1.16.2',cubic,6.726580722551479,62.32902324726281,80.6590789792171,28.910485668989487,0.3399125361378739,True,True
820,Y2Zn17,"[Element Y, Element Zn]",Y2 Zn17,crystal_system=<CrystalSystem.trig: 'Trigonal'> symbol='R-3m' number=166 point_group='-3m' symprec=0.1 version='1.16.2',trig,7.282830923147515,294.07584683375035,80.72907093389907,50.83552067402641,0.23977008504919617,True,True
821,Ba2CuO3,"[Element Ba, Element Cu, Element O]",Ba2 Cu1 O3,crystal_system=<CrystalSystem.ortho: 'Orthorhombic'> symbol='Immm' number=71 point_group='mmm' symprec=0.1 version='1.16.2',ortho,6.184929080792238,103.6870738812829,80.79056354864912,39.35441244752421,0.29046450427172277,True,True
822,Sr(AsPd)2,"[Element As, Element Pd, Element Sr]",Sr1 As2 Pd2,crystal_system=<CrystalSystem.tet: 'Tetragonal'> symbol='I4/mmm' number=139 point_group='4/mmm' symprec=0.1 version='1.16.2',tet,7.499661794863792,99.70397010797119,80.80817520876677,33.517465231436766,0.3178015687613299,True,True