,Formula,Elements,Composition,Symmetry,Crystal system,Density [g/m$^3$],Volume [$\mathring{A}^3$],Bulk modulus[GPa],Shear modulus [GPa],Poisson,Metal,Experimental report
685,Ga2Au,"[Element Au, Element Ga]",Ga2 Au1,crystal_system=<CrystalSystem.cubic: 'Cubic'> symbol='Fm-3m' number=225 point_group='m-3m' symprec=0.1 version='1.16.2',cubic,9.807565267084506,56.95870464350534,73.48385043261666,12.414753151064588,0.42003081007934256,True,True
686,Np3S5,"[Element Np, Element S]",Np3 S5,crystal_system=<CrystalSystem.ortho: 'Orthorhombic'> symbol='Pnma' number=62 point_group='mmm' symprec=0.1 version='1.16.2',ortho,8.092420816146676,715.1724978603833,73.53870787815193,44.93321553039709,0.24618719252864016,True,True
687,NaNiF3,"[Element F, Element Na, Element Ni]",Na1 Ni1 F3,crystal_system=<CrystalSystem.ortho: 'Orthorhombic'> symbol='Pnma' number=62 point_group='mmm' symprec=0.1 version='1.16.2',ortho,4.138200964379597,222.59031671509968,73.77149255357384,36.23442514608095,0.2889657570784034,False,True
688,CaPdF4,"[Element Ca, Element F, Element Pd]",Ca1 Pd1 F4,crystal_system=<CrystalSystem.tet: 'Tetragonal'> symbol='I4/mcm' number=140 point_group='4/mmm' symprec=0.1 version='1.16.2',tet,4.575247481488774,161.502089904444,73.8353935332926,30.36056283186346,0.3191867507901563,False,True
689,CuS,"[Element Cu, Element S]",Cu1 S1,crystal_system=<CrystalSystem.ortho: 'Orthorhombic'> symbol='Cmcm' number=63 point_group='mmm' symprec=0.1 version='1.16.2',ortho,4.754606456722273,200.35197715119716,73.89629279192587,23.604604677976223,0.3556549217037077,True,True
690,MgSn4Ru,"[Element Mg, Element Ru, Element Sn]",Mg1 Sn4 Ru1,crystal_system=<CrystalSystem.tet: 'Tetragonal'> symbol='I4/mcm' number=140 point_group='4/mmm' symprec=0.1 version='1.16.2',tet,7.660301651517089,260.21963656272743,74.06187738576767,48.919224284042414,0.22933411304662701,True,True
691,V4GaS8,"[Element Ga, Element S, Element V]",V4 Ga1 S8,crystal_system=<CrystalSystem.cubic: 'Cubic'> symbol='F-43m' number=216 point_group='-43m' symprec=0.1 version='1.16.2',cubic,3.847126157538436,228.76833618389244,74.15394220115576,46.49304086447711,0.24070162048646457,True,True
692,LiV2O5,"[Element Li, Element O, Element V]",Li1 V2 O5,crystal_system=<CrystalSystem.ortho: 'Orthorhombic'> symbol='Pnma' number=62 point_group='mmm' symprec=0.1 version='1.16.2',ortho,3.349233329519434,374.46736759838427,74.19521091473183,35.95192689958331,0.2914117762089249,False,False
693,CaCuP,"[Element Ca, Element Cu, Element P]",Ca1 Cu1 P1,crystal_system=<CrystalSystem.hex_: 'Hexagonal'> symbol='P6_3/mmc' number=194 point_group='6/mmm' symprec=0.1 version='1.16.2',hex_,4.058283794338192,110.14746794679358,74.30143643031849,51.37356372127226,0.2190427914012848,True,True
694,Nd2S3,"[Element Nd, Element S]",Nd2 S3,crystal_system=<CrystalSystem.ortho: 'Orthorhombic'> symbol='Pnma' number=62 point_group='mmm' symprec=0.1 version='1.16.2',ortho,5.354881460522223,477.1530517042118,74.32358024406432,35.33673568186579,0.29479841521182615,False,True
695,Sr(CoGe)2,"[Element Co, Element Ge, Element Sr]",Sr1 Co2 Ge2,crystal_system=<CrystalSystem.tet: 'Tetragonal'> symbol='I4/mmm' number=139 point_group='4/mmm' symprec=0.1 version='1.16.2',tet,6.674191403233217,87.27069073312559,74.37048787933006,50.14216691607527,0.2247493099300968,True,True
696,MgS,"[Element Mg, Element S]",Mg1 S1,crystal_system=<CrystalSystem.cubic: 'Cubic'> symbol='Fm-3m' number=225 point_group='m-3m' symprec=0.1 version='1.16.2',cubic,2.6493863804696764,35.33066670617066,74.43856307751938,52.08455553039512,0.21631530915000016,False,True
697,Cu3Se2,"[Element Cu, Element Se]",Cu3 Se2,crystal_system=<CrystalSystem.tet: 'Tetragonal'> symbol='P-42_1m' number=113 point_group='-42m' symprec=0.1 version='1.16.2',tet,6.701255502681932,172.7420110289248,74.44733318413265,14.561121839583144,0.4081908525135017,True,True
698,Sr5P3O12F,"[Element F, Element O, Element P, Element Sr]",Sr5 P3 O12 F1,crystal_system=<CrystalSystem.hex_: 'Hexagonal'> symbol='P6_3/m' number=176 point_group='6/m' symprec=0.1 version='1.16.2',hex_,3.9854005567123316,618.327171228248,74.51840165335915,39.11445834315646,0.27663317957276895,False,True
699,YZnAsO,"[Element As, Element O, Element Y, Element Zn]",Y1 Zn1 As1 O1,crystal_system=<CrystalSystem.tet: 'Tetragonal'> symbol='P4/nmm' number=129 point_group='4/mmm' symprec=0.1 version='1.16.2',tet,5.7516680554504225,141.60195113136348,74.64865871728139,33.603086696864736,0.30429115335237655,False,True
700,KNiF3,"[Element F, Element K, Element Ni]",K1 Ni1 F3,crystal_system=<CrystalSystem.cubic: 'Cubic'> symbol='Pm-3m' number=221 point_group='m-3m' symprec=0.1 version='1.16.2',cubic,3.991875024933351,64.38821575917798,74.6759915796141,40.36990082570347,0.2709707345066306,True,True
701,Sc2InAg,"[Element Ag, Element In, Element Sc]",Sc2 In1 Ag1,crystal_system=<CrystalSystem.cubic: 'Cubic'> symbol='Fm-3m' number=225 point_group='m-3m' symprec=0.1 version='1.16.2',cubic,6.078160848024115,85.40103560482558,74.83857285986551,32.94984448734526,0.30803348555718374,True,False
702,CdSiP2,"[Element Cd, Element P, Element Si]",Cd1 Si1 P2,crystal_system=<CrystalSystem.tet: 'Tetragonal'> symbol='I-42d' number=122 point_group='-42m' symprec=0.1 version='1.16.2',tet,3.9604347433979967,169.76227734194765,74.87507834015638,39.22625144038915,0.2769981213681265,False,True
703,Li7SbN4,"[Element Li, Element N, Element Sb]",Li7 Sb1 N4,crystal_system=<CrystalSystem.cubic: 'Cubic'> symbol='P-43n' number=218 point_group='-43m' symprec=0.1 version='1.16.2',cubic,3.0659706995287834,980.837915019784,74.89310345757659,63.82431230111723,0.16816198852412398,False,False
704,GaCuS2,"[Element Cu, Element Ga, Element S]",Ga1 Cu1 S2,crystal_system=<CrystalSystem.tet: 'Tetragonal'> symbol='I-42d' number=122 point_group='-42m' symprec=0.1 version='1.16.2',tet,4.4131581525774095,148.55064780143238,74.92045185652444,35.7731304007869,0.2940399505987666,False,True
705,ZnGeP2,"[Element Ge, Element P, Element Zn]",Zn1 Ge1 P2,crystal_system=<CrystalSystem.tet: 'Tetragonal'> symbol='I-42d' number=122 point_group='-42m' symprec=0.1 version='1.16.2',tet,4.179818738428334,158.9073890850488,74.92337408902517,48.92040446511757,0.2318847401339562,False,True
706,Ba(NiP)2,"[Element Ba, Element Ni, Element P]",Ba1 Ni2 P2,crystal_system=<CrystalSystem.tet: 'Tetragonal'> symbol='I4/mmm' number=139 point_group='4/mmm' symprec=0.1 version='1.16.2',tet,5.6948836013396935,92.33349374508401,74.93904733659153,37.08752744732212,0.2875895405519057,True,True
707,NaTlPd2,"[Element Na, Element Pd, Element Tl]",Na1 Tl1 Pd2,crystal_system=<CrystalSystem.cubic: 'Cubic'> symbol='Fm-3m' number=225 point_group='m-3m' symprec=0.1 version='1.16.2',cubic,10.267052252398322,71.19774801930876,74.97026852221767,-2.874673137116222,0.51942030631903,True,False
708,La2Co3,"[Element Co, Element La]",La2 Co3,crystal_system=<CrystalSystem.ortho: 'Orthorhombic'> symbol='Cmce' number=64 point_group='mmm' symprec=0.1 version='1.16.2',ortho,7.505862476413042,201.1490456219476,75.0188322378129,14.159312109221226,0.41121419496327216,True,True
709,Mg2H6Ru,"[Element H, Element Mg, Element Ru]",Mg2 H6 Ru1,crystal_system=<CrystalSystem.cubic: 'Cubic'> symbol='Fm-3m' number=225 point_group='m-3m' symprec=0.1 version='1.16.2',cubic,3.6058543311943576,71.71444163241284,75.0642498596944,53.21007209597025,0.21331070689680703,False,True
710,BaGe3Pt,"[Element Ba, Element Ge, Element Pt]",Ba1 Ge3 Pt1,crystal_system=<CrystalSystem.tet: 'Tetragonal'> symbol='I4mm' number=107 point_group='4mm' symprec=0.1 version='1.16.2',tet,8.394102908482864,108.86763422182199,75.08821342542947,39.46262308694048,0.27639653023122335,True,True
711,KCuF3,"[Element Cu, Element F, Element K]",K1 Cu1 F3,crystal_system=<CrystalSystem.tet: 'Tetragonal'> symbol='I4/mcm' number=140 point_group='4/mmm' symprec=0.1 version='1.16.2',tet,4.008852461531502,132.2511341125257,75.0959939745876,27.5997184906973,0.3362926402976666,True,True
712,Y3TlC,"[Element C, Element Tl, Element Y]",Y3 Tl1 C1,crystal_system=<CrystalSystem.cubic: 'Cubic'> symbol='Pm-3m' number=221 point_group='m-3m' symprec=0.1 version='1.16.2',cubic,6.778338013071455,118.35137178961192,75.10918770248318,63.57879184972657,0.1698993077229954,True,True
713,CaCuF4,"[Element Ca, Element Cu, Element F]",Ca1 Cu1 F4,crystal_system=<CrystalSystem.tet: 'Tetragonal'> symbol='I4/mcm' number=140 point_group='4/mmm' symprec=0.1 version='1.16.2',tet,3.9840989383178025,149.72623306878356,75.1744436446464,34.07699308345562,0.30309928418364235,False,True
714,CaMoO4,"[Element Ca, Element Mo, Element O]",Ca1 Mo1 O4,crystal_system=<CrystalSystem.tet: 'Tetragonal'> symbol='I4_1/a' number=88 point_group='4/m' symprec=0.1 version='1.16.2',tet,4.2688496941470335,155.60806377644232,75.1868546614784,33.05942892519809,0.3082547956564034,False,True
715,ScZn,"[Element Sc, Element Zn]",Sc1 Zn1,crystal_system=<CrystalSystem.cubic: 'Cubic'> symbol='Pm-3m' number=221 point_group='m-3m' symprec=0.1 version='1.16.2',cubic,4.9451108194663815,37.05988695671879,75.1904306307307,40.38272947800833,0.2722384722557172,True,True
716,CaNiGe2,"[Element Ca, Element Ge, Element Ni]",Ca1 Ni1 Ge2,crystal_system=<CrystalSystem.ortho: 'Orthorhombic'> symbol='Cmcm' number=63 point_group='mmm' symprec=0.1 version='1.16.2',ortho,5.552767486834823,145.96573147327186,75.34047874543153,35.56916140373818,0.29604105580650186,True,True
717,HoGa2,"[Element Ga, Element Ho]",Ho1 Ga2,crystal_system=<CrystalSystem.hex_: 'Hexagonal'> symbol='P6/mmm' number=191 point_group='6/mmm' symprec=0.1 version='1.16.2',hex_,8.257514816458807,61.208339499497676,75.3908533778629,53.3653434323271,0.21364164169738392,True,True
718,NaNbS2,"[Element Na, Element Nb, Element S]",Na1 Nb1 S2,crystal_system=<CrystalSystem.hex_: 'Hexagonal'> symbol='P6_3/mmc' number=194 point_group='6/mmm' symprec=0.1 version='1.16.2',hex_,4.153144678355541,143.95860343944022,75.46345341012088,47.9524305512627,0.23781470392583168,False,True
719,HfVF6,"[Element F, Element Hf, Element V]",Hf1 V1 F6,crystal_system=<CrystalSystem.cubic: 'Cubic'> symbol='Fm-3m' number=225 point_group='m-3m' symprec=0.1 version='1.16.2',cubic,4.288465031091243,132.9766032890418,75.46519947350855,33.018767262545666,0.3090770695624179,False,True
720,YAs,"[Element As, Element Y]",Y1 As1,crystal_system=<CrystalSystem.cubic: 'Cubic'> symbol='Fm-3m' number=225 point_group='m-3m' symprec=0.1 version='1.16.2',cubic,5.503158841073434,49.43376863412401,75.48744325477364,50.980201266966304,0.22437426368552743,True,True
721,Mg3Ir,"[Element Ir, Element Mg]",Mg3 Ir1,crystal_system=<CrystalSystem.hex_: 'Hexagonal'> symbol='P6_3cm' number=185 point_group='6mm' symprec=0.1 version='1.16.2',hex_,6.044837291329051,436.99642116487087,75.58844383226116,30.984847883575185,0.3196809331535834,True,True
722,ScGa,"[Element Ga, Element Sc]",Sc1 Ga1,crystal_system=<CrystalSystem.ortho: 'Orthorhombic'> symbol='Cmcm' number=63 point_group='mmm' symprec=0.1 version='1.16.2',ortho,4.769018143046059,79.860804794319,75.62385782845328,42.1850861346328,0.26481671447448807,True,True
723,NaCrN2,"[Element Cr, Element N, Element Na]",Na1 Cr1 N2,crystal_system=<CrystalSystem.tet: 'Tetragonal'> symbol='I-42d' number=122 point_group='-42m' symprec=0.1 version='1.16.2',tet,3.259294727429566,104.95173022022405,75.65201903936739,36.06779482504517,0.29430879808854044,True,False
724,Li2SiO3,"[Element Li, Element O, Element Si]",Li2 Si1 O3,crystal_system=<CrystalSystem.ortho: 'Orthorhombic'> symbol='Cmc2_1' number=36 point_group='mm2' symprec=0.1 version='1.16.2',ortho,2.5727203754632537,116.13509258822238,75.69164896832186,50.79530780927732,0.2257966247870916,False,True
725,YCuSn,"[Element Cu, Element Sn, Element Y]",Y1 Cu1 Sn1,crystal_system=<CrystalSystem.hex_: 'Hexagonal'> symbol='P6_3mc' number=186 point_group='6mm' symprec=0.1 version='1.16.2',hex_,6.973223810562701,129.14395336471912,75.8222976130969,51.843706112562714,0.22158035011679228,True,False
726,ScHg,"[Element Hg, Element Sc]",Sc1 Hg1,crystal_system=<CrystalSystem.cubic: 'Cubic'> symbol='Pm-3m' number=221 point_group='m-3m' symprec=0.1 version='1.16.2',cubic,9.464499845420512,43.08083746413857,75.83338143960184,28.99860217643471,0.33041670238548615,True,True
727,CaCO3,"[Element C, Element Ca, Element O]",Ca1 C1 O3,crystal_system=<CrystalSystem.trig: 'Trigonal'> symbol='R-3c' number=167 point_group='-3m' symprec=0.1 version='1.16.2',trig,2.7035197010809995,122.9495072208524,75.86612530974455,32.240676272568784,0.31388088511308965,False,True
728,MgZnAg2,"[Element Ag, Element Mg, Element Zn]",Mg1 Zn1 Ag2,crystal_system=<CrystalSystem.cubic: 'Cubic'> symbol='Fm-3m' number=225 point_group='m-3m' symprec=0.1 version='1.16.2',cubic,7.660162582249634,66.21430245931394,75.9548791893048,18.499800309169984,0.3873632058958128,True,True
729,Y3PbC,"[Element C, Element Pb, Element Y]",Y3 Pb1 C1,crystal_system=<CrystalSystem.cubic: 'Cubic'> symbol='Pm-3m' number=221 point_group='m-3m' symprec=0.1 version='1.16.2',cubic,6.8186781336098905,118.33713615433366,76.07371281955453,58.305672798596746,0.19476326206914785,True,True
730,Ca3FeN3,"[Element Ca, Element Fe, Element N]",Ca3 Fe1 N3,crystal_system=<CrystalSystem.hex_: 'Hexagonal'> symbol='P6_3/m' number=176 point_group='6/m' symprec=0.1 version='1.16.2',hex_,3.25854810216912,222.28432086009067,76.09324205760768,46.58035967416696,0.24579597726624378,True,False
731,Sc2AlZn,"[Element Al, Element Sc, Element Zn]",Sc2 Al1 Zn1,crystal_system=<CrystalSystem.cubic: 'Cubic'> symbol='Fm-3m' number=225 point_group='m-3m' symprec=0.1 version='1.16.2',cubic,3.982623797915326,76.01024108509452,76.13649272279514,45.60636369579114,0.25034456008716544,True,False
732,Ti(CuS)4,"[Element Cu, Element S, Element Ti]",Ti1 Cu4 S4,crystal_system=<CrystalSystem.tet: 'Tetragonal'> symbol='I-42m' number=121 point_group='-42m' symprec=0.1 version='1.16.2',tet,4.631598565750239,154.27680446480318,76.18567203023593,37.17483905238559,0.2901559128146263,False,True
733,GaP,"[Element Ga, Element P]",Ga1 P1,crystal_system=<CrystalSystem.cubic: 'Cubic'> symbol='F-43m' number=216 point_group='-43m' symprec=0.1 version='1.16.2',cubic,4.128066394428307,40.5058667192971,76.18684986504738,51.77542735374053,0.22296405949789264,False,True
734,Mg(BeAs)2,"[Element As, Element Be, Element Mg]",Mg1 Be2 As2,crystal_system=<CrystalSystem.trig: 'Trigonal'> symbol='P-3m1' number=164 point_group='-3m' symprec=0.1 version='1.16.2',trig,4.009677000171609,79.58497655472777,76.2033684881703,45.355409419916455,0.25167270903210387,False,True
735,Ca6FeN5,"[Element Ca, Element Fe, Element N]",Ca6 Fe1 N5,crystal_system=<CrystalSystem.hex_: 'Hexagonal'> symbol='P6_3/mcm' number=193 point_group='6/mmm' symprec=0.1 version='1.16.2',hex_,2.9710383139509156,409.50846867619833,76.22680657324324,35.60018906380202,0.29794096948125925,True,True
736,Hf5Te4,"[Element Hf, Element Te]",Hf5 Te4,crystal_system=<CrystalSystem.tet: 'Tetragonal'> symbol='I4/m' number=87 point_group='4/m' symprec=0.1 version='1.16.2',tet,10.73282739858272,217.04320241723266,76.2775017195354,35.74290285667112,0.29735700045897373,True,True
737,YZnGe,"[Element Ge, Element Y, Element Zn]",Y1 Zn1 Ge1,crystal_system=<CrystalSystem.hex_: 'Hexagonal'> symbol='P6_3/mmc' number=194 point_group='6/mmm' symprec=0.1 version='1.16.2',hex_,6.245369097189926,241.37397736759078,76.29804360531975,54.320503369537604,0.21230033614386246,True,True
738,SmClO,"[Element Cl, Element O, Element Sm]",Sm1 Cl1 O1,crystal_system=<CrystalSystem.tet: 'Tetragonal'> symbol='P4/nmm' number=129 point_group='4/mmm' symprec=0.1 version='1.16.2',tet,6.258666742805479,107.08906164704587,76.36869055740692,34.13731555238883,0.30548049518565,False,True
739,CuSn,"[Element Cu, Element Sn]",Cu1 Sn1,crystal_system=<CrystalSystem.hex_: 'Hexagonal'> symbol='P6_3/mmc' number=194 point_group='6/mmm' symprec=0.1 version='1.16.2',hex_,8.128451418295157,74.46515764148475,76.51661286065092,34.12901434930386,0.30584896757988256,True,True
740,CaF2,"[Element Ca, Element F]",Ca1 F2,crystal_system=<CrystalSystem.cubic: 'Cubic'> symbol='Fm-3m' number=225 point_group='m-3m' symprec=0.1 version='1.16.2',cubic,3.0898326992343006,41.95899220581091,76.54559136565447,38.437745738208875,0.2849231674731193,False,True
741,Y3InC,"[Element C, Element In, Element Y]",Y3 In1 C1,crystal_system=<CrystalSystem.cubic: 'Cubic'> symbol='Pm-3m' number=221 point_group='m-3m' symprec=0.1 version='1.16.2',cubic,5.492844864479261,118.97276161300869,76.56783560255542,63.304740820107824,0.17592341854215848,True,True
742,Ca6MnN5,"[Element Ca, Element Mn, Element N]",Ca6 Mn1 N5,crystal_system=<CrystalSystem.hex_: 'Hexagonal'> symbol='P6_3/mcm' number=193 point_group='6/mmm' symprec=0.1 version='1.16.2',hex_,2.9595946735770795,410.07415398514337,76.59605355974284,38.015678638439134,0.2870698265456244,False,True
743,Sm2S3,"[Element S, Element Sm]",Sm2 S3,crystal_system=<CrystalSystem.ortho: 'Orthorhombic'> symbol='Pnma' number=62 point_group='mmm' symprec=0.1 version='1.16.2',ortho,5.745705003776228,458.84211819880477,76.79566390897227,36.53064752544235,0.2947083173609359,False,True
744,TbAs,"[Element As, Element Tb]",Tb1 As1,crystal_system=<CrystalSystem.cubic: 'Cubic'> symbol='Fm-3m' number=225 point_group='m-3m' symprec=0.1 version='1.16.2',cubic,7.801718017722144,49.772626387954446,76.83666607020902,51.51216499478447,0.22602065520681017,True,True
745,CaSn2Ir,"[Element Ca, Element Ir, Element Sn]",Ca1 Sn2 Ir1,crystal_system=<CrystalSystem.ortho: 'Orthorhombic'> symbol='Cmcm' number=63 point_group='mmm' symprec=0.1 version='1.16.2',ortho,8.721382278317115,178.86616657251366,76.91525905072638,37.803044790856816,0.2888481998319349,True,True
746,ZrCd3,"[Element Cd, Element Zr]",Zr1 Cd3,crystal_system=<CrystalSystem.cubic: 'Cubic'> symbol='Pm-3m' number=221 point_group='m-3m' symprec=0.1 version='1.16.2',cubic,8.408229429693929,84.6158626863414,77.13762722834424,27.889026506254176,0.33866860043112107,True,False
747,Ba(FeAs)2,"[Element As, Element Ba, Element Fe]",Ba1 Fe2 As2,crystal_system=<CrystalSystem.tet: 'Tetragonal'> symbol='I4/mmm' number=139 point_group='4/mmm' symprec=0.1 version='1.16.2',tet,6.757964869900642,98.00627214885581,77.17965743045325,41.71535185056612,0.2710080966793802,True,True
748,Na2Mn3O7,"[Element Mn, Element Na, Element O]",Na2 Mn3 O7,crystal_system=<CrystalSystem.tri: 'Triclinic'> symbol='P-1' number=2 point_group='-1' symprec=0.1 version='1.16.2',tri,3.9462516209315126,271.6524857617183,77.18611013977443,30.607361102209133,0.3248777657104576,False,True
749,Lu2S3,"[Element Lu, Element S]",Lu2 S3,crystal_system=<CrystalSystem.trig: 'Trigonal'> symbol='R-3c' number=167 point_group='-3m' symprec=0.1 version='1.16.2',trig,6.310200559334407,234.79907691597418,77.19722998441998,31.36694322462587,0.32107294113781687,False,True
750,ScZn3,"[Element Sc, Element Zn]",Sc1 Zn3,crystal_system=<CrystalSystem.hex_: 'Hexagonal'> symbol='P6_3/mmc' number=194 point_group='6/mmm' symprec=0.1 version='1.16.2',hex_,6.204193484898381,129.10417721407012,77.22388839480216,22.883580340420544,0.365155516870765,True,False
751,Ca3(GaNi)4,"[Element Ca, Element Ga, Element Ni]",Ca3 Ga4 Ni4,crystal_system=<CrystalSystem.cubic: 'Cubic'> symbol='I-43m' number=217 point_group='-43m' symprec=0.1 version='1.16.2',cubic,5.351401523375435,196.69894802402507,77.26384020878797,35.39919416341523,0.30127007300047826,True,True
752,Ca2GeN2,"[Element Ca, Element Ge, Element N]",Ca2 Ge1 N2,crystal_system=<CrystalSystem.tet: 'Tetragonal'> symbol='P4_2/mbc' number=135 point_group='4/mmm' symprec=0.1 version='1.16.2',tet,3.82095714003538,628.6196077158319,77.39640340749253,54.014533375313526,0.21690866428067362,True,True
753,BaCuO2,"[Element Ba, Element Cu, Element O]",Ba1 Cu1 O2,crystal_system=<CrystalSystem.ortho: 'Orthorhombic'> symbol='Cmcm' number=63 point_group='mmm' symprec=0.1 version='1.16.2',ortho,5.800540355348222,133.32989608560274,77.41810975151978,33.34596722361888,0.31167584713318314,True,False