,Formula,Elements,Composition,Symmetry,Crystal system,Density [g/m$^3$],Volume [$\mathring{A}^3$],Bulk modulus[GPa],Shear modulus [GPa],Poisson,Metal,Experimental report
411,Ba(BiPd)2,"[Element Ba, Element Bi, Element Pd]",Ba1 Bi2 Pd2,crystal_system=<CrystalSystem.mono: 'Monoclinic'> symbol='P2_1/m' number=11 point_group='2/m' symprec=0.1 version='1.16.2',mono,9.572845761963215,266.4842308667739,59.94266739775007,19.583752971638205,0.35268857679344245,True,True
412,CaSn2Pd,"[Element Ca, Element Pd, Element Sn]",Ca1 Sn2 Pd1,crystal_system=<CrystalSystem.ortho: 'Orthorhombic'> symbol='Cmcm' number=63 point_group='mmm' symprec=0.1 version='1.16.2',ortho,6.821638889203961,186.90840946737126,60.00737081420304,23.444521012023138,0.3271619236975483,True,True
413,BPO4,"[Element B, Element O, Element P]",B1 P1 O4,crystal_system=<CrystalSystem.tet: 'Tetragonal'> symbol='I-4' number=82 point_group='-4' symprec=0.1 version='1.16.2',tet,2.7982559343246876,62.7732947882106,60.337538750751435,61.783282653188564,0.11830111464990108,False,True
414,Li2CuP,"[Element Cu, Element Li, Element P]",Li2 Cu1 P1,crystal_system=<CrystalSystem.hex_: 'Hexagonal'> symbol='P6_3/mmc' number=194 point_group='6/mmm' symprec=0.1 version='1.16.2',hex_,3.3850505875229553,106.35312887361961,60.45663241639153,45.52165953962481,0.19905231258562198,True,True
415,CuSO4,"[Element Cu, Element O, Element S]",Cu1 S1 O4,crystal_system=<CrystalSystem.ortho: 'Orthorhombic'> symbol='Pnma' number=62 point_group='mmm' symprec=0.1 version='1.16.2',ortho,3.9386550679433143,269.1642818102671,60.46250487635355,25.56540634520749,0.31470128888599114,True,True
416,SrSbPt,"[Element Pt, Element Sb, Element Sr]",Sr1 Sb1 Pt1,crystal_system=<CrystalSystem.hex_: 'Hexagonal'> symbol='P-6m2' number=187 point_group='-6m2' symprec=0.1 version='1.16.2',hex_,8.227608864489737,81.63104057267986,60.47375800915643,24.19111924181058,0.3235190093079988,True,True
417,Ba2FeO4,"[Element Ba, Element Fe, Element O]",Ba2 Fe1 O4,crystal_system=<CrystalSystem.mono: 'Monoclinic'> symbol='P2_1/c' number=14 point_group='2/m' symprec=0.1 version='1.16.2',mono,5.489534289608775,477.3279344886352,60.4932152623084,28.61215050779939,0.2957167937129168,True,True
418,GaAgS2,"[Element Ag, Element Ga, Element S]",Ga1 Ag1 S2,crystal_system=<CrystalSystem.tet: 'Tetragonal'> symbol='I-42d' number=122 point_group='-42m' symprec=0.1 version='1.16.2',tet,4.669724656821038,171.9105623236812,60.542697539762926,21.532354127009576,0.3410195896504995,False,True
419,CaInPd,"[Element Ca, Element In, Element Pd]",Ca1 In1 Pd1,crystal_system=<CrystalSystem.ortho: 'Orthorhombic'> symbol='Pnma' number=62 point_group='mmm' symprec=0.1 version='1.16.2',ortho,6.371698682450504,272.40800191810786,60.60752284063217,22.639897113835445,0.3339066998670766,True,True
420,ZnGeAs2,"[Element As, Element Ge, Element Zn]",Zn1 Ge1 As2,crystal_system=<CrystalSystem.tet: 'Tetragonal'> symbol='I-42d' number=122 point_group='-42m' symprec=0.1 version='1.16.2',tet,5.30038653730052,180.38542725334665,60.613658790630026,37.439235844120574,0.2438945666886743,False,True
421,NaNbSe2,"[Element Na, Element Nb, Element Se]",Na1 Nb1 Se2,crystal_system=<CrystalSystem.hex_: 'Hexagonal'> symbol='P6_3/mmc' number=194 point_group='6/mmm' symprec=0.1 version='1.16.2',hex_,5.549090460693393,163.87637439545435,60.67396562024276,38.37585126912607,0.2388186703714705,False,True
422,Eu(AlSi)2,"[Element Al, Element Eu, Element Si]",Eu1 Al2 Si2,crystal_system=<CrystalSystem.trig: 'Trigonal'> symbol='P-3m1' number=164 point_group='-3m' symprec=0.1 version='1.16.2',trig,4.0470269580579785,107.54168454568212,60.70050267693122,39.80128043620613,0.23095461725940528,True,True
423,GaAs,"[Element As, Element Ga]",Ga1 As1,crystal_system=<CrystalSystem.cubic: 'Cubic'> symbol='F-43m' number=216 point_group='-43m' symprec=0.1 version='1.16.2',cubic,5.05320036242451,47.531859385343836,60.73704812749061,40.84833759779973,0.22530866720958842,False,True
424,SrZnF4,"[Element F, Element Sr, Element Zn]",Sr1 Zn1 F4,crystal_system=<CrystalSystem.tet: 'Tetragonal'> symbol='I4_1/a' number=88 point_group='4/m' symprec=0.1 version='1.16.2',tet,4.400127368118763,172.85908514589187,60.78964593690515,21.31654882449326,0.34301864720481867,False,True
425,Ba(PPd)2,"[Element Ba, Element P, Element Pd]",Ba1 P2 Pd2,crystal_system=<CrystalSystem.tet: 'Tetragonal'> symbol='P4/mmm' number=123 point_group='4/mmm' symprec=0.1 version='1.16.2',tet,6.493142454174843,105.39307767308625,60.81283681987014,30.99666041095442,0.2821587209512534,True,True
426,K2Mn2O3,"[Element K, Element Mn, Element O]",K2 Mn2 O3,crystal_system=<CrystalSystem.mono: 'Monoclinic'> symbol='P2_1/c' number=14 point_group='2/m' symprec=0.1 version='1.16.2',mono,3.4790202253719325,225.35363978237473,60.82874935039525,24.094600316468835,0.3250471872863014,True,True
427,Sr7GeN6,"[Element Ge, Element N, Element Sr]",Sr7 Ge1 N6,crystal_system=<CrystalSystem.ortho: 'Orthorhombic'> symbol='Pbcn' number=60 point_group='mmm' symprec=0.1 version='1.16.2',ortho,4.74189647533553,1078.5968279332121,60.83460891005571,38.00753398359998,0.24145866774908253,False,True
428,Ca(CuSn)2,"[Element Ca, Element Cu, Element Sn]",Ca1 Cu2 Sn2,crystal_system=<CrystalSystem.mono: 'Monoclinic'> symbol='C2/m' number=12 point_group='2/m' symprec=0.1 version='1.16.2',mono,6.349256762114563,105.81356623730942,60.92217008041135,26.567607086990677,0.30962773226305423,True,True
429,CaO2,"[Element Ca, Element O]",Ca1 O2,crystal_system=<CrystalSystem.tet: 'Tetragonal'> symbol='I4/mmm' number=139 point_group='4/mmm' symprec=0.1 version='1.16.2',tet,3.3128924587774553,36.12744563392266,60.930591450939325,29.8461017060371,0.2894582405127852,False,True
430,LiAlGe,"[Element Al, Element Ge, Element Li]",Li1 Al1 Ge1,crystal_system=<CrystalSystem.cubic: 'Cubic'> symbol='F-43m' number=216 point_group='-43m' symprec=0.1 version='1.16.2',cubic,3.3502587178791146,52.81719212819173,60.95615486406521,50.73384894303357,0.17422936758255303,False,True
431,ScCd3,"[Element Cd, Element Sc]",Sc1 Cd3,crystal_system=<CrystalSystem.hex_: 'Hexagonal'> symbol='P6_3/mmc' number=194 point_group='6/mmm' symprec=0.1 version='1.16.2',hex_,7.488449735352803,169.4982650951719,61.01994746605551,26.58912056417985,0.30975970363644006,True,True
432,FeBPbO4,"[Element B, Element Fe, Element O, Element Pb]",Fe1 B1 Pb1 O4,crystal_system=<CrystalSystem.ortho: 'Orthorhombic'> symbol='Pnma' number=62 point_group='mmm' symprec=0.1 version='1.16.2',ortho,6.119326740035644,366.71949410446535,61.032526469673,32.15890530539251,0.275902881522532,False,True
433,Li2CuGe,"[Element Cu, Element Ge, Element Li]",Li2 Cu1 Ge1,crystal_system=<CrystalSystem.cubic: 'Cubic'> symbol='F-43m' number=216 point_group='-43m' symprec=0.1 version='1.16.2',cubic,4.872728837166978,51.14049744483851,61.078153784089054,37.91005621233936,0.24286007654747255,True,False
434,Sr3GaN3,"[Element Ga, Element N, Element Sr]",Sr3 Ga1 N3,crystal_system=<CrystalSystem.hex_: 'Hexagonal'> symbol='P6_3/m' number=176 point_group='6/m' symprec=0.1 version='1.16.2',hex_,4.61427797035654,269.61664902533033,61.089262696180256,37.639889511772054,0.2444188681852399,False,True
435,LiSnAu,"[Element Au, Element Li, Element Sn]",Li1 Sn1 Au1,crystal_system=<CrystalSystem.hex_: 'Hexagonal'> symbol='P6_3/mmc' number=194 point_group='6/mmm' symprec=0.1 version='1.16.2',hex_,9.242249240946641,115.92829038251512,61.094372399172435,15.690845473496868,0.38171181849978814,True,True
436,Sr6Cu3N5,"[Element Cu, Element N, Element Sr]",Sr6 Cu3 N5,crystal_system=<CrystalSystem.tet: 'Tetragonal'> symbol='P4_2mc' number=105 point_group='4mm' symprec=0.1 version='1.16.2',tet,4.764178087905891,548.1884947613943,61.11761528030834,27.241675618571865,0.30596592378251025,False,True
437,Ca4Mg4Fe3H22,"[Element Ca, Element Fe, Element H, Element Mg]",Ca4 Mg4 Fe3 H22,crystal_system=<CrystalSystem.cubic: 'Cubic'> symbol='P-43m' number=215 point_group='-43m' symprec=0.1 version='1.16.2',cubic,2.4855975315865693,298.7862163581128,61.170831559108265,43.782770037263006,0.21106237018021104,False,True
438,Y2ZnIn,"[Element In, Element Y, Element Zn]",Y2 Zn1 In1,crystal_system=<CrystalSystem.cubic: 'Cubic'> symbol='Fm-3m' number=225 point_group='m-3m' symprec=0.1 version='1.16.2',cubic,6.006927717014611,98.97526268222802,61.22162887045144,32.45764787301299,0.27472746224415073,True,False
439,YCu2Bi2(SeO2)2,"[Element Bi, Element Cu, Element O, Element Se, Element Y]",Y1 Cu2 Bi2 Se2 O4,crystal_system=<CrystalSystem.tet: 'Tetragonal'> symbol='I4/mmm' number=139 point_group='4/mmm' symprec=0.1 version='1.16.2',tet,7.470141539209849,190.25288099834808,61.23589189747837,33.250311658641245,0.27011462865732366,True,True
440,LiCoF4,"[Element Co, Element F, Element Li]",Li1 Co1 F4,crystal_system=<CrystalSystem.mono: 'Monoclinic'> symbol='P2_1/c' number=14 point_group='2/m' symprec=0.1 version='1.16.2',mono,3.505376008701767,134.40899724309304,61.273258935545414,33.41423096111319,0.26927486190258093,False,True
441,CaZn5,"[Element Ca, Element Zn]",Ca1 Zn5,crystal_system=<CrystalSystem.hex_: 'Hexagonal'> symbol='P6/mmm' number=191 point_group='6/mmm' symprec=0.1 version='1.16.2',hex_,5.958730943141993,102.30736872739934,61.28282437721076,38.71082007742527,0.2390977061488315,True,True
442,Y2C,"[Element C, Element Y]",Y2 C1,crystal_system=<CrystalSystem.trig: 'Trigonal'> symbol='R-3m' number=166 point_group='-3m' symprec=0.1 version='1.16.2',trig,4.539960964582364,69.4295641250669,61.33892365102197,32.20768830480196,0.2765676805342964,True,True
443,YCdHg2,"[Element Cd, Element Hg, Element Y]",Y1 Cd1 Hg2,crystal_system=<CrystalSystem.cubic: 'Cubic'> symbol='Fm-3m' number=225 point_group='m-3m' symprec=0.1 version='1.16.2',cubic,10.917557739887748,91.63858628136063,61.38147091237063,18.625560131832096,0.3622165806778231,True,False
444,Ca(AlZn)2,"[Element Al, Element Ca, Element Zn]",Ca1 Al2 Zn2,crystal_system=<CrystalSystem.tet: 'Tetragonal'> symbol='I4/mmm' number=139 point_group='4/mmm' symprec=0.1 version='1.16.2',tet,3.9348205737590756,94.89308982989154,61.38686137159882,36.131391237108865,0.2539761184260743,True,True
445,Sr3RuN3,"[Element N, Element Ru, Element Sr]",Sr3 Ru1 N3,crystal_system=<CrystalSystem.hex_: 'Hexagonal'> symbol='P6_3/m' number=176 point_group='6/m' symprec=0.1 version='1.16.2',hex_,4.855878026944556,277.6412407394571,61.581651107043335,35.08780829542656,0.26058294470710996,True,False
446,Cu3AsSe4,"[Element As, Element Cu, Element Se]",Cu3 As1 Se4,crystal_system=<CrystalSystem.tet: 'Tetragonal'> symbol='I-42m' number=121 point_group='-42m' symprec=0.1 version='1.16.2',tet,5.653490355195966,170.76826676078204,61.650683619305795,21.9478547158552,0.3408806326784709,True,True
447,YSb,"[Element Sb, Element Y]",Y1 Sb1,crystal_system=<CrystalSystem.cubic: 'Cubic'> symbol='Fm-3m' number=225 point_group='m-3m' symprec=0.1 version='1.16.2',cubic,5.838449890030212,59.91639570647841,61.66647790915637,34.410828054454676,0.2647501002802484,True,True
448,Y2CdS4,"[Element Cd, Element S, Element Y]",Y2 Cd1 S4,crystal_system=<CrystalSystem.cubic: 'Cubic'> symbol='Fd-3m' number=227 point_group='m-3m' symprec=0.1 version='1.16.2',cubic,3.8995312080374798,356.4053395002699,61.66767644756736,22.33276741129136,0.3384304512708714,False,True
449,Ca(AlSi)2,"[Element Al, Element Ca, Element Si]",Ca1 Al2 Si2,crystal_system=<CrystalSystem.trig: 'Trigonal'> symbol='P-3m1' number=164 point_group='-3m' symprec=0.1 version='1.16.2',trig,2.370422692062102,105.22723364951669,61.78167769670683,40.593441603718844,0.2305011353728566,True,True
450,Li(Sn3Pd)2,"[Element Li, Element Pd, Element Sn]",Li1 Sn6 Pd2,crystal_system=<CrystalSystem.tet: 'Tetragonal'> symbol='P4/mbm' number=127 point_group='4/mmm' symprec=0.1 version='1.16.2',tet,7.951263237354016,389.2942406690999,61.79124029838212,20.88542470295605,0.34811273718995617,True,True
451,CaAlPd,"[Element Al, Element Ca, Element Pd]",Ca1 Al1 Pd1,crystal_system=<CrystalSystem.ortho: 'Orthorhombic'> symbol='Pbcm' number=57 point_group='mmm' symprec=0.1 version='1.16.2',ortho,4.596145225885567,250.7053515007577,61.804973275653566,27.402864435188288,0.3068568527047996,True,True
452,Mg5Pd2,"[Element Mg, Element Pd]",Mg5 Pd2,crystal_system=<CrystalSystem.hex_: 'Hexagonal'> symbol='P6_3/mmc' number=194 point_group='6/mmm' symprec=0.1 version='1.16.2',hex_,4.211352146353607,527.3614038516828,61.90808155187929,24.48975234741403,0.32525127229949524,True,True
453,Y2MgCu2,"[Element Cu, Element Mg, Element Y]",Y2 Mg1 Cu2,crystal_system=<CrystalSystem.tet: 'Tetragonal'> symbol='P4/mbm' number=127 point_group='4/mmm' symprec=0.1 version='1.16.2',tet,5.075788384466988,215.40059041370182,61.91494205640943,17.17110836917678,0.3730673240997231,True,True
454,Na2SiO3,"[Element Na, Element O, Element Si]",Na2 Si1 O3,crystal_system=<CrystalSystem.ortho: 'Orthorhombic'> symbol='Cmc2_1' number=36 point_group='mm2' symprec=0.1 version='1.16.2',ortho,2.6673590623275913,151.97862116675321,61.981682230046495,35.28043091709019,0.2607841241975204,False,True
455,LiYSi,"[Element Li, Element Si, Element Y]",Li1 Y1 Si1,crystal_system=<CrystalSystem.hex_: 'Hexagonal'> symbol='P-62m' number=189 point_group='-6m2' symprec=0.1 version='1.16.2',hex_,3.415509345550151,180.75884558066957,62.08916949856123,47.65885487042648,0.194398351357449,True,True
456,CrSb2,"[Element Cr, Element Sb]",Cr1 Sb2,crystal_system=<CrystalSystem.ortho: 'Orthorhombic'> symbol='Pnnm' number=58 point_group='mmm' symprec=0.1 version='1.16.2',ortho,6.831057828732424,143.6720464567725,62.12287363608958,31.99124116256278,0.28023954911512905,True,True
457,AgF,"[Element Ag, Element F]",Ag1 F1,crystal_system=<CrystalSystem.cubic: 'Cubic'> symbol='Fm-3m' number=225 point_group='m-3m' symprec=0.1 version='1.16.2',cubic,7.067923081136195,29.806061616982827,62.13445163425135,0.24347112194591525,0.49804332765417325,True,True
458,LiSn4Au3,"[Element Au, Element Li, Element Sn]",Li1 Sn4 Au3,crystal_system=<CrystalSystem.hex_: 'Hexagonal'> symbol='P6_3mc' number=186 point_group='6mm' symprec=0.1 version='1.16.2',hex_,9.688308323734876,367.7067575559854,62.20061659625543,19.153945320509855,0.3603639913738231,True,True
459,SrInPt,"[Element In, Element Pt, Element Sr]",Sr1 In1 Pt1,crystal_system=<CrystalSystem.ortho: 'Orthorhombic'> symbol='Pnma' number=62 point_group='mmm' symprec=0.1 version='1.16.2',ortho,8.946946665173794,295.11780299414255,62.28932687606853,24.849440810641486,0.32394381641980946,True,True
460,YMgHg2,"[Element Hg, Element Mg, Element Y]",Y1 Mg1 Hg2,crystal_system=<CrystalSystem.cubic: 'Cubic'> symbol='Fm-3m' number=225 point_group='m-3m' symprec=0.1 version='1.16.2',cubic,9.430575310482082,90.57412446271174,62.31277963913139,23.68932449720525,0.33129477785706246,True,False
461,Y5Sn3,"[Element Sn, Element Y]",Y5 Sn3,crystal_system=<CrystalSystem.hex_: 'Hexagonal'> symbol='P6_3/mcm' number=193 point_group='6/mmm' symprec=0.1 version='1.16.2',hex_,5.801945225909033,458.30352128198496,62.46271743369998,44.412539105107555,0.21260306320260908,True,True
462,TiPbO3,"[Element O, Element Pb, Element Ti]",Ti1 Pb1 O3,crystal_system=<CrystalSystem.tet: 'Tetragonal'> symbol='P4mm' number=99 point_group='4mm' symprec=0.1 version='1.16.2',tet,7.801556471692714,64.50656431866487,62.5051989503384,38.5628992104439,0.24414042103349382,False,True
463,Y2AlZn,"[Element Al, Element Y, Element Zn]",Y2 Al1 Zn1,crystal_system=<CrystalSystem.cubic: 'Cubic'> symbol='Fm-3m' number=225 point_group='m-3m' symprec=0.1 version='1.16.2',cubic,4.852353289923562,92.46675711140198,62.50807557550563,40.61102498537177,0.23298060242356158,True,False
464,AlCuSe2,"[Element Al, Element Cu, Element Se]",Al1 Cu1 Se2,crystal_system=<CrystalSystem.tet: 'Tetragonal'> symbol='I-42d' number=122 point_group='-42m' symprec=0.1 version='1.16.2',tet,4.781385838476759,172.56789465764706,62.51523100285671,28.432401861388854,0.30253273917541446,False,True
465,SrAsPd,"[Element As, Element Pd, Element Sr]",Sr1 As1 Pd1,crystal_system=<CrystalSystem.hex_: 'Hexagonal'> symbol='P6_3/mmc' number=194 point_group='6/mmm' symprec=0.1 version='1.16.2',hex_,6.267330622258319,142.52359453610913,62.636416443871724,27.052348443065632,0.3112289679427663,True,True
466,Cu2SiSe3,"[Element Cu, Element Se, Element Si]",Cu2 Si1 Se3,crystal_system=<CrystalSystem.mono: 'Monoclinic'> symbol='Cc' number=9 point_group='m' symprec=0.1 version='1.16.2',mono,5.2507950422182175,247.9726555194205,62.76283745979465,28.328124249615023,0.3038369211354748,False,True
467,ScTe,"[Element Sc, Element Te]",Sc1 Te1,crystal_system=<CrystalSystem.hex_: 'Hexagonal'> symbol='P6_3/mmc' number=194 point_group='6/mmm' symprec=0.1 version='1.16.2',hex_,5.546529536829515,103.3207634237463,62.823131213556294,33.40564107670558,0.2741590815799228,True,True
468,CaCuAs,"[Element As, Element Ca, Element Cu]",Ca1 Cu1 As1,crystal_system=<CrystalSystem.hex_: 'Hexagonal'> symbol='P6_3/mmc' number=194 point_group='6/mmm' symprec=0.1 version='1.16.2',hex_,4.9695828633385055,119.31864388729154,62.90247144413085,43.36871719000201,0.21969079560977767,True,True
469,Li3VO4,"[Element Li, Element O, Element V]",Li3 V1 O4,crystal_system=<CrystalSystem.ortho: 'Orthorhombic'> symbol='Pmn2_1' number=31 point_group='mm2' symprec=0.1 version='1.16.2',ortho,2.6975068558216786,167.1456517911135,62.97155504349092,32.88571633673943,0.27759923504729783,False,True
470,YMgAg2,"[Element Ag, Element Mg, Element Y]",Y1 Mg1 Ag2,crystal_system=<CrystalSystem.cubic: 'Cubic'> symbol='Fm-3m' number=225 point_group='m-3m' symprec=0.1 version='1.16.2',cubic,6.482849972262653,84.2576585626261,62.971646513205144,13.764490463523284,0.39813107479646465,True,False
471,Cd(InS2)2,"[Element Cd, Element In, Element S]",Cd1 In2 S4,crystal_system=<CrystalSystem.cubic: 'Cubic'> symbol='Fd-3m' number=227 point_group='m-3m' symprec=0.1 version='1.16.2',cubic,4.789859607424008,326.0902033892593,62.975291512977,22.327596542224,0.3414634578928648,False,True
472,Ca3Al7Ag2,"[Element Ag, Element Al, Element Ca]",Ca3 Al7 Ag2,crystal_system=<CrystalSystem.trig: 'Trigonal'> symbol='R-3m' number=166 point_group='-3m' symprec=0.1 version='1.16.2',trig,3.599108543161647,242.14864776252938,62.98654357647693,39.91707443880756,0.23839359661264303,True,True
473,LiAlSi,"[Element Al, Element Li, Element Si]",Li1 Al1 Si1,crystal_system=<CrystalSystem.cubic: 'Cubic'> symbol='F-43m' number=216 point_group='-43m' symprec=0.1 version='1.16.2',cubic,1.9973824269645617,51.550854332397535,62.992534448727156,55.44852617542459,0.15972218507929686,True,True
474,Li3B7O12,"[Element B, Element Li, Element O]",Li3 B7 O12,crystal_system=<CrystalSystem.tri: 'Triclinic'> symbol='P-1' number=2 point_group='-1' symprec=0.1 version='1.16.2',tri,2.336922888427131,409.98662575062383,63.122375059959595,37.259830485945706,0.2533843864040099,False,True
475,MgCuSn,"[Element Cu, Element Mg, Element Sn]",Mg1 Cu1 Sn1,crystal_system=<CrystalSystem.cubic: 'Cubic'> symbol='F-43m' number=216 point_group='-43m' symprec=0.1 version='1.16.2',cubic,5.807460810759918,59.06240632747032,63.151986374687766,29.817977605825927,0.29602242256527084,True,True
476,Sr5P3BrO12,"[Element Br, Element O, Element P, Element Sr]",Sr5 P3 Br1 O12,crystal_system=<CrystalSystem.hex_: 'Hexagonal'> symbol='P6_3/m' number=176 point_group='6/m' symprec=0.1 version='1.16.2',hex_,4.136537431498184,644.6342484080014,63.20083450141752,34.6385562206916,0.26829473427047984,False,True
477,Sr(ZnP)2,"[Element P, Element Sr, Element Zn]",Sr1 Zn2 P2,crystal_system=<CrystalSystem.trig: 'Trigonal'> symbol='P-3m1' number=164 point_group='-3m' symprec=0.1 version='1.16.2',trig,4.547961890208605,102.37357470243802,63.21221682447458,42.910329920763246,0.22321509067956993,False,True
478,MgZn2,"[Element Mg, Element Zn]",Mg1 Zn2,crystal_system=<CrystalSystem.cubic: 'Cubic'> symbol='Fd-3m' number=227 point_group='m-3m' symprec=0.1 version='1.16.2',cubic,5.331969808752822,96.62012759537475,63.30163125487138,34.79002563532938,0.26775158694127915,True,False