,Formula,Elements,Composition,Symmetry,Crystal system,Density [g/m$^3$],Volume [$\mathring{A}^3$],Bulk modulus[GPa],Shear modulus [GPa],Poisson,Metal,Experimental report
1305,ZrZn,"[Element Zn, Element Zr]",Zr1 Zn1,crystal_system=<CrystalSystem.cubic: 'Cubic'> symbol='Pm-3m' number=221 point_group='m-3m' symprec=0.1 version='1.16.2',cubic,7.0863735567230055,36.703571091309385,107.49973830013066,47.126670010349585,0.308752557920572,True,True
1306,Li2RuO3,"[Element Li, Element O, Element Ru]",Li2 Ru1 O3,crystal_system=<CrystalSystem.mono: 'Monoclinic'> symbol='C2/m' number=12 point_group='2/m' symprec=0.1 version='1.16.2',mono,5.113188387331899,105.838139537619,107.60408946041761,47.40981353988523,0.30791334773765283,True,True
1307,AlHO2,"[Element Al, Element H, Element O]",Al1 H1 O2,crystal_system=<CrystalSystem.ortho: 'Orthorhombic'> symbol='Cmc2_1' number=36 point_group='mm2' symprec=0.1 version='1.16.2',ortho,3.146310424072464,63.32043996119724,107.64299887448072,79.85247795582276,0.2026210873803174,False,False
1308,RbCrO2,"[Element Cr, Element O, Element Rb]",Rb1 Cr1 O2,crystal_system=<CrystalSystem.trig: 'Trigonal'> symbol='R-3m' number=166 point_group='-3m' symprec=0.1 version='1.16.2',trig,5.393561742091892,52.17321079045904,107.71111228400761,66.75556016108396,0.24317468127783134,False,False
1309,YSnPd2,"[Element Pd, Element Sn, Element Y]",Y1 Sn1 Pd2,crystal_system=<CrystalSystem.cubic: 'Cubic'> symbol='Fm-3m' number=225 point_group='m-3m' symprec=0.1 version='1.16.2',cubic,9.044104715945007,77.1976206196057,107.75645501896017,25.015481664829444,0.3922628335673003,True,True
1310,Sb7Mo3,"[Element Mo, Element Sb]",Sb7 Mo3,crystal_system=<CrystalSystem.cubic: 'Cubic'> symbol='Im-3m' number=229 point_group='m-3m' symprec=0.1 version='1.16.2',cubic,8.504162906636422,445.25182129704604,107.81800225482812,54.659870541001666,0.28316107730354145,True,True
1311,ScAlCu2,"[Element Al, Element Cu, Element Sc]",Sc1 Al1 Cu2,crystal_system=<CrystalSystem.cubic: 'Cubic'> symbol='Fm-3m' number=225 point_group='m-3m' symprec=0.1 version='1.16.2',cubic,5.650750673135394,58.48712803707098,107.84981115560129,44.6395125041837,0.31813884015531585,True,True
1312,Zr2Al3,"[Element Al, Element Zr]",Zr2 Al3,crystal_system=<CrystalSystem.ortho: 'Orthorhombic'> symbol='Fdd2' number=43 point_group='mm2' symprec=0.1 version='1.16.2',ortho,4.709331813444076,185.74767959278702,107.90164652773197,68.86805082709378,0.236858931296632,True,True
1313,NiF2,"[Element F, Element Ni]",Ni1 F2,crystal_system=<CrystalSystem.tet: 'Tetragonal'> symbol='P4_2/mnm' number=136 point_group='4/mmm' symprec=0.1 version='1.16.2',tet,4.858200007945914,66.09767602083656,107.91735805787053,45.27254625421934,0.3159775374808367,False,True
1314,Hf,[Element Hf],Hf1,crystal_system=<CrystalSystem.hex_: 'Hexagonal'> symbol='P6_3/mmc' number=194 point_group='6/mmm' symprec=0.1 version='1.16.2',hex_,13.312731475593225,44.52724349481806,107.97253194438251,55.82078406786974,0.2795029932880896,True,True
1315,SrPd5,"[Element Pd, Element Sr]",Sr1 Pd5,crystal_system=<CrystalSystem.hex_: 'Hexagonal'> symbol='P6/mmm' number=191 point_group='6/mmm' symprec=0.1 version='1.16.2',hex_,9.203370342712624,111.81439320956865,107.98143677416404,47.14932180782914,0.3094174176319287,True,True
1316,Th3P4,"[Element P, Element Th]",Th3 P4,crystal_system=<CrystalSystem.cubic: 'Cubic'> symbol='I-43d' number=220 point_group='-43m' symprec=0.1 version='1.16.2',cubic,8.35009290805165,326.1418460993449,108.05400799357473,57.76550020389439,0.2731290760182107,False,True
1317,Sc2AlTc,"[Element Al, Element Sc, Element Tc]",Sc2 Al1 Tc1,crystal_system=<CrystalSystem.cubic: 'Cubic'> symbol='Fm-3m' number=225 point_group='m-3m' symprec=0.1 version='1.16.2',cubic,4.943135289478131,72.18876337653553,108.06110504647069,41.5044985638989,0.32975438198124274,True,False
1318,LiRh,"[Element Li, Element Rh]",Li1 Rh1,crystal_system=<CrystalSystem.hex_: 'Hexagonal'> symbol='P-6m2' number=187 point_group='-6m2' symprec=0.1 version='1.16.2',hex_,6.920097842919409,26.35864531394042,108.09496832534691,47.387032734577616,0.30875459810148664,True,True
1319,Ca(SiPd)2,"[Element Ca, Element Pd, Element Si]",Ca1 Si2 Pd2,crystal_system=<CrystalSystem.tet: 'Tetragonal'> symbol='I4/mmm' number=139 point_group='4/mmm' symprec=0.1 version='1.16.2',tet,5.895881424997254,87.05303288160452,108.11191589012307,41.02615770618806,0.3315663574836649,True,True
1320,Zr4Al3,"[Element Al, Element Zr]",Zr4 Al3,crystal_system=<CrystalSystem.hex_: 'Hexagonal'> symbol='P6/mmm' number=191 point_group='6/mmm' symprec=0.1 version='1.16.2',hex_,5.354868453873113,138.25470530044956,108.12825944104019,76.98643330534884,0.2122871630740737,True,True
1321,LiZnPd2,"[Element Li, Element Pd, Element Zn]",Li1 Zn1 Pd2,crystal_system=<CrystalSystem.cubic: 'Cubic'> symbol='Fm-3m' number=225 point_group='m-3m' symprec=0.1 version='1.16.2',cubic,8.81552032059414,53.71993021187169,108.20420422737655,46.00122435818473,0.3138174303250009,True,False
1322,InAu3,"[Element Au, Element In]",In1 Au3,crystal_system=<CrystalSystem.ortho: 'Orthorhombic'> symbol='Pmmn' number=59 point_group='mmm' symprec=0.1 version='1.16.2',ortho,15.904084910830166,147.3674001409368,108.24700914096972,16.326716334222557,0.42819586445919444,True,True
1323,LiNi2Sn,"[Element Li, Element Ni, Element Sn]",Li1 Ni2 Sn1,crystal_system=<CrystalSystem.cubic: 'Cubic'> symbol='Fm-3m' number=225 point_group='m-3m' symprec=0.1 version='1.16.2',cubic,7.69782875004552,52.426960207205305,108.33860832267322,28.078083548315337,0.3807197623446835,True,True
1324,Ti3In,"[Element In, Element Ti]",Ti3 In1,crystal_system=<CrystalSystem.hex_: 'Hexagonal'> symbol='P6_3/mmc' number=194 point_group='6/mmm' symprec=0.1 version='1.16.2',hex_,5.957455202915978,144.05978070692592,108.4025975205122,44.56025955352126,0.31923698126985917,True,True
1325,YSnPt,"[Element Pt, Element Sn, Element Y]",Y1 Sn1 Pt1,crystal_system=<CrystalSystem.ortho: 'Orthorhombic'> symbol='Pnma' number=62 point_group='mmm' symprec=0.1 version='1.16.2',ortho,10.204453256841694,262.12039634386997,108.40671504278146,41.047754290815874,0.3318945462218607,True,True
1326,ScBe5,"[Element Be, Element Sc]",Sc1 Be5,crystal_system=<CrystalSystem.hex_: 'Hexagonal'> symbol='P6/mmm' number=191 point_group='6/mmm' symprec=0.1 version='1.16.2',hex_,2.3756132384801165,62.92120584317472,108.47117650552394,103.69609622601072,0.13751886462615723,True,True
1327,V2O3F,"[Element F, Element O, Element V]",V2 O3 F1,crystal_system=<CrystalSystem.ortho: 'Orthorhombic'> symbol='Cmcm' number=63 point_group='mmm' symprec=0.1 version='1.16.2',ortho,4.4287481291060145,126.64128574957549,108.48740373306347,53.96648123700854,0.2866536625478725,False,False
1328,Mg3NF3,"[Element F, Element Mg, Element N]",Mg3 N1 F3,crystal_system=<CrystalSystem.cubic: 'Cubic'> symbol='Pm-3m' number=221 point_group='m-3m' symprec=0.1 version='1.16.2',cubic,3.222969667724881,74.14889849206621,108.55963444392307,81.16643589255344,0.20074708470065342,False,True
1329,TiAl2,"[Element Al, Element Ti]",Ti1 Al2,crystal_system=<CrystalSystem.tet: 'Tetragonal'> symbol='I4_1/amd' number=141 point_group='4/mmm' symprec=0.1 version='1.16.2',tet,3.5919732311432475,188.30075890256603,108.55986109016695,82.11260186695975,0.19796159100272792,True,True
1330,Sc2ZnRu,"[Element Ru, Element Sc, Element Zn]",Sc2 Zn1 Ru1,crystal_system=<CrystalSystem.cubic: 'Cubic'> symbol='Fm-3m' number=225 point_group='m-3m' symprec=0.1 version='1.16.2',cubic,6.15570866705516,69.16295143211165,108.56190489362157,33.93303960602421,0.3584624444574135,True,False
1331,Ba2CaIrO6,"[Element Ba, Element Ca, Element Ir, Element O]",Ba2 Ca1 Ir1 O6,crystal_system=<CrystalSystem.cubic: 'Cubic'> symbol='Fm-3m' number=225 point_group='m-3m' symprec=0.1 version='1.16.2',cubic,6.598059773468753,151.74375893845558,108.56571093330702,57.12713558840042,0.2761617785012536,True,True
1332,Al21Pd8,"[Element Al, Element Pd]",Al21 Pd8,crystal_system=<CrystalSystem.tet: 'Tetragonal'> symbol='I4_1/a' number=88 point_group='4/m' symprec=0.1 version='1.16.2',tet,5.240073126854336,898.6891442569835,108.60351710070205,50.059051291124106,0.3002270563551059,True,True
1333,P2Pd,"[Element P, Element Pd]",P2 Pd1,crystal_system=<CrystalSystem.mono: 'Monoclinic'> symbol='C2/c' number=15 point_group='2/m' symprec=0.1 version='1.16.2',mono,5.538126998604,100.96585044697865,108.67576516838645,58.07902883345845,0.2731915937593719,False,True
1334,YRh,"[Element Rh, Element Y]",Y1 Rh1,crystal_system=<CrystalSystem.cubic: 'Cubic'> symbol='Pm-3m' number=221 point_group='m-3m' symprec=0.1 version='1.16.2',cubic,7.977457274005196,39.926285926991035,108.73310368338917,42.29741935260897,0.3278244451190512,True,True
1335,Sr3(FeO3)2,"[Element Fe, Element O, Element Sr]",Sr3 Fe2 O6,crystal_system=<CrystalSystem.tet: 'Tetragonal'> symbol='I4/mmm' number=139 point_group='4/mmm' symprec=0.1 version='1.16.2',tet,5.157719297531043,151.49344793192236,108.75408016097384,55.294516906234506,0.2826227061816702,False,True
1336,MgInPd2,"[Element In, Element Mg, Element Pd]",Mg1 In1 Pd2,crystal_system=<CrystalSystem.cubic: 'Cubic'> symbol='Fm-3m' number=225 point_group='m-3m' symprec=0.1 version='1.16.2',cubic,8.778938373225161,66.57391664580327,108.78625036099162,35.06283205372453,0.3544795038964393,True,False
1337,Tl2O3,"[Element O, Element Tl]",Tl2 O3,crystal_system=<CrystalSystem.cubic: 'Cubic'> symbol='Ia-3' number=206 point_group='m-3' symprec=0.1 version='1.16.2',cubic,10.139632486625052,598.4246830628017,108.81595141135409,31.612311372779402,0.36756843789421784,True,True
1338,YCu5,"[Element Cu, Element Y]",Y1 Cu5,crystal_system=<CrystalSystem.hex_: 'Hexagonal'> symbol='P6/mmm' number=191 point_group='6/mmm' symprec=0.1 version='1.16.2',hex_,7.723802651891214,87.42257476500421,108.8562144772637,42.173208334417936,0.32844417524448755,True,True
1339,InAgO2,"[Element Ag, Element In, Element O]",In1 Ag1 O2,crystal_system=<CrystalSystem.trig: 'Trigonal'> symbol='R-3m' number=166 point_group='-3m' symprec=0.1 version='1.16.2',trig,7.145653351630925,59.18484585884577,109.00342680959943,30.851937132395406,0.3706823368670383,False,True
1340,NiAsS,"[Element As, Element Ni, Element S]",Ni1 As1 S1,crystal_system=<CrystalSystem.cubic: 'Cubic'> symbol='P2_13' number=198 point_group='23' symprec=0.1 version='1.16.2',cubic,6.023477316469833,182.69720169911815,109.013702011532,58.64462204702642,0.27192069432259824,True,True
1341,Zr2Cu,"[Element Cu, Element Zr]",Zr2 Cu1,crystal_system=<CrystalSystem.tet: 'Tetragonal'> symbol='I4/mmm' number=139 point_group='4/mmm' symprec=0.1 version='1.16.2',tet,7.041590575522222,58.009996856272245,109.02188295986373,47.22782021466364,0.3107321228622452,True,True
1342,MnNiSb,"[Element Mn, Element Ni, Element Sb]",Mn1 Ni1 Sb1,crystal_system=<CrystalSystem.cubic: 'Cubic'> symbol='F-43m' number=216 point_group='-43m' symprec=0.1 version='1.16.2',cubic,7.653907968672769,51.068903880968065,109.19242928220507,45.82361914940226,0.31592056302949345,True,True
1343,ScInPt,"[Element In, Element Pt, Element Sc]",Sc1 In1 Pt1,crystal_system=<CrystalSystem.hex_: 'Hexagonal'> symbol='P-62m' number=189 point_group='-6m2' symprec=0.1 version='1.16.2',hex_,10.094533518710916,175.12114597743792,109.36347568181256,37.1894116030423,0.34728388620909845,True,True
1344,Sn7Ru3,"[Element Ru, Element Sn]",Sn7 Ru3,crystal_system=<CrystalSystem.cubic: 'Cubic'> symbol='Im-3m' number=229 point_group='m-3m' symprec=0.1 version='1.16.2',cubic,9.05328246693602,416.0590825338041,109.39972707264425,37.92289456239649,0.34463012310209623,True,True
1345,Zr6Ga2Co,"[Element Co, Element Ga, Element Zr]",Zr6 Ga2 Co1,crystal_system=<CrystalSystem.hex_: 'Hexagonal'> symbol='P-62m' number=189 point_group='-6m2' symprec=0.1 version='1.16.2',hex_,6.955538034320646,178.03115906449298,109.46458664711967,49.74006828998357,0.3026886333234148,True,True
1346,CdPd,"[Element Cd, Element Pd]",Cd1 Pd1,crystal_system=<CrystalSystem.tet: 'Tetragonal'> symbol='P4/mmm' number=123 point_group='4/mmm' symprec=0.1 version='1.16.2',tet,10.664881972117675,68.1446687236034,109.58971537811219,42.22202850310674,0.32928692895039,True,True
1347,Mg2PdPt,"[Element Mg, Element Pd, Element Pt]",Mg2 Pd1 Pt1,crystal_system=<CrystalSystem.cubic: 'Cubic'> symbol='Fm-3m' number=225 point_group='m-3m' symprec=0.1 version='1.16.2',cubic,9.368799994095843,62.05468951519651,109.67464691167228,4.062988844900421,0.48170302486790195,True,False
1348,Y2(Al3Co)3,"[Element Al, Element Co, Element Y]",Y2 Al9 Co3,crystal_system=<CrystalSystem.ortho: 'Orthorhombic'> symbol='Cmcm' number=63 point_group='mmm' symprec=0.1 version='1.16.2',ortho,4.47417273869092,443.47012976100604,109.82973490418951,75.73960779232485,0.2196413281024647,True,True
1349,Ba2HfO4,"[Element Ba, Element Hf, Element O]",Ba2 Hf1 O4,crystal_system=<CrystalSystem.tet: 'Tetragonal'> symbol='I4/mmm' number=139 point_group='4/mmm' symprec=0.1 version='1.16.2',tet,7.319037352570924,117.32879453913253,109.90350234123572,59.7969811287177,0.26972080275392224,False,False
1350,ScSbPt,"[Element Pt, Element Sb, Element Sc]",Sc1 Sb1 Pt1,crystal_system=<CrystalSystem.cubic: 'Cubic'> symbol='F-43m' number=216 point_group='-43m' symprec=0.1 version='1.16.2',cubic,9.349058707043094,64.26132373260674,109.90464581872328,53.381246994849505,0.2909870086020049,False,True
1351,Al7CoCu2,"[Element Al, Element Co, Element Cu]",Al7 Co1 Cu2,crystal_system=<CrystalSystem.tet: 'Tetragonal'> symbol='P4/mnc' number=128 point_group='4/mmm' symprec=0.1 version='1.16.2',tet,4.369063832988927,569.9430540930636,109.98492107106063,63.40658299680784,0.2582124542444522,True,True
1352,ZrAs2,"[Element As, Element Zr]",Zr1 As2,crystal_system=<CrystalSystem.ortho: 'Orthorhombic'> symbol='Pnma' number=62 point_group='mmm' symprec=0.1 version='1.16.2',ortho,6.946340282759064,230.51073629055043,109.99059946662933,70.63274622132823,0.23552691612080823,True,True
1353,Y(MnSn)6,"[Element Mn, Element Sn, Element Y]",Y1 Mn6 Sn6,crystal_system=<CrystalSystem.hex_: 'Hexagonal'> symbol='P6/mmm' number=191 point_group='6/mmm' symprec=0.1 version='1.16.2',hex_,7.306718101495304,256.9864864715795,110.12983474656828,71.28505571265595,0.23379547964982972,True,True
1354,Li2TiO3,"[Element Li, Element O, Element Ti]",Li2 Ti1 O3,crystal_system=<CrystalSystem.mono: 'Monoclinic'> symbol='C2/c' number=15 point_group='2/m' symprec=0.1 version='1.16.2',mono,3.46303787960749,210.4967018964505,110.20712409151463,72.94012043792898,0.22888845285631498,False,True
1355,Sn2Ir,"[Element Ir, Element Sn]",Sn2 Ir1,crystal_system=<CrystalSystem.cubic: 'Cubic'> symbol='Fm-3m' number=225 point_group='m-3m' symprec=0.1 version='1.16.2',cubic,11.055949287752366,64.52897027550146,110.23207613565229,35.86688392636478,0.35323038767570897,True,True
1356,YMgRh2,"[Element Mg, Element Rh, Element Y]",Y1 Mg1 Rh2,crystal_system=<CrystalSystem.cubic: 'Cubic'> symbol='Fm-3m' number=225 point_group='m-3m' symprec=0.1 version='1.16.2',cubic,7.605486674719928,69.65343148714582,110.38868058163615,47.93415302672943,0.31033713374005,True,False
1357,YAsPt,"[Element As, Element Pt, Element Y]",Y1 As1 Pt1,crystal_system=<CrystalSystem.hex_: 'Hexagonal'> symbol='P6_3/mmc' number=194 point_group='6/mmm' symprec=0.1 version='1.16.2',hex_,9.816164704543882,242.85920300386636,110.4015311904758,45.63852585547302,0.31833875887844393,True,True
1358,MnSbPt,"[Element Mn, Element Pt, Element Sb]",Mn1 Sb1 Pt1,crystal_system=<CrystalSystem.cubic: 'Cubic'> symbol='F-43m' number=216 point_group='-43m' symprec=0.1 version='1.16.2',cubic,10.330880719521804,59.758565290212296,110.48096648441111,29.141770024053884,0.37877284106546233,True,True
1359,ScNi,"[Element Ni, Element Sc]",Sc1 Ni1,crystal_system=<CrystalSystem.cubic: 'Cubic'> symbol='Pm-3m' number=221 point_group='m-3m' symprec=0.1 version='1.16.2',cubic,5.493431033458031,31.330825990887007,110.48564043536992,45.5405041151707,0.3188031228690187,True,True
1360,InPd,"[Element In, Element Pd]",In1 Pd1,crystal_system=<CrystalSystem.cubic: 'Cubic'> symbol='Pm-3m' number=221 point_group='m-3m' symprec=0.1 version='1.16.2',cubic,10.488534636104994,35.026279147882796,110.6675103471351,27.87277238125197,0.38382320716580265,True,True
1361,Y2IrPd,"[Element Ir, Element Pd, Element Y]",Y2 Ir1 Pd1,crystal_system=<CrystalSystem.cubic: 'Cubic'> symbol='Fm-3m' number=225 point_group='m-3m' symprec=0.1 version='1.16.2',cubic,9.6139797342165,82.2928382889149,110.68514177812776,38.807036357807235,0.34304004705381963,True,False
1362,Zr2Ga3,"[Element Ga, Element Zr]",Zr2 Ga3,crystal_system=<CrystalSystem.ortho: 'Orthorhombic'> symbol='Fdd2' number=43 point_group='mm2' symprec=0.1 version='1.16.2',ortho,7.254014254795026,179.2925419783497,110.72866651895329,66.80083831788755,0.2488607443529574,True,True
1363,CeBe13,"[Element Be, Element Ce]",Ce1 Be13,crystal_system=<CrystalSystem.cubic: 'Cubic'> symbol='Fm-3c' number=226 point_group='m-3m' symprec=0.1 version='1.16.2',cubic,3.118553638684656,273.98222706724846,110.73854109493743,118.0973217548009,0.10661583331427849,True,True
1364,Ti5Sb3,"[Element Sb, Element Ti]",Ti5 Sb3,crystal_system=<CrystalSystem.ortho: 'Orthorhombic'> symbol='Pnma' number=62 point_group='mmm' symprec=0.1 version='1.16.2',ortho,6.560313004548959,612.1578815255849,110.91053154351957,45.9995655869033,0.3178144403519993,True,True
1365,MgAu3,"[Element Au, Element Mg]",Mg1 Au3,crystal_system=<CrystalSystem.ortho: 'Orthorhombic'> symbol='Cmcm' number=63 point_group='mmm' symprec=0.1 version='1.16.2',ortho,14.273581980437987,1431.4156759386324,111.01102973585967,31.999462452048043,0.3685070866698248,True,False
1366,NaCoO2,"[Element Co, Element Na, Element O]",Na1 Co1 O2,crystal_system=<CrystalSystem.trig: 'Trigonal'> symbol='R-3m' number=166 point_group='-3m' symprec=0.1 version='1.16.2',trig,5.112135088513984,37.00440947813951,111.0474126270011,63.115478985125606,0.26108170403234654,False,True
1367,FeCO3,"[Element C, Element Fe, Element O]",Fe1 C1 O3,crystal_system=<CrystalSystem.trig: 'Trigonal'> symbol='R-3c' number=167 point_group='-3m' symprec=0.1 version='1.16.2',trig,4.030868222290347,95.4533447182052,111.23118848405788,-4.006347731235893,0.518227948412427,True,True
1368,Sr2FeO4,"[Element Fe, Element O, Element Sr]",Sr2 Fe1 O4,crystal_system=<CrystalSystem.tet: 'Tetragonal'> symbol='I4/mmm' number=139 point_group='4/mmm' symprec=0.1 version='1.16.2',tet,5.36847191773973,91.2729343995903,111.47104830762031,63.15723643824427,0.26171299699682676,True,True
1369,Hf2Ag,"[Element Ag, Element Hf]",Hf2 Ag1,crystal_system=<CrystalSystem.tet: 'Tetragonal'> symbol='I4/mmm' number=139 point_group='4/mmm' symprec=0.1 version='1.16.2',tet,12.656477086056126,60.98842441623072,111.5031307550219,53.285774322707226,0.2938894850408872,True,True
1370,Cu2O,"[Element Cu, Element O]",Cu2 O1,crystal_system=<CrystalSystem.cubic: 'Cubic'> symbol='Pn-3m' number=224 point_group='m-3m' symprec=0.1 version='1.16.2',cubic,6.20494716806907,76.5869082712687,111.56776739083098,8.352509762841914,0.46347893197441437,False,True
1371,Al6Ru,"[Element Al, Element Ru]",Al6 Ru1,crystal_system=<CrystalSystem.ortho: 'Orthorhombic'> symbol='Cmcm' number=63 point_group='mmm' symprec=0.1 version='1.16.2',ortho,4.028992622747918,216.75595757090443,111.56896950616672,57.46448029997721,0.28020650433052546,True,True
1372,Mn2P2O7,"[Element Mn, Element O, Element P]",Mn2 P2 O7,crystal_system=<CrystalSystem.mono: 'Monoclinic'> symbol='C2/m' number=12 point_group='2/m' symprec=0.1 version='1.16.2',mono,3.763679967633767,125.22138674368267,111.57028181408106,49.30181655178356,0.3074211291792621,False,True
1373,TiGe2,"[Element Ge, Element Ti]",Ti1 Ge2,crystal_system=<CrystalSystem.ortho: 'Orthorhombic'> symbol='Fddd' number=70 point_group='mmm' symprec=0.1 version='1.16.2',ortho,6.764949728122496,94.82055358469105,111.62212498627002,83.25439554578324,0.20132650150824558,True,True