,Formula,Elements,Composition,Symmetry,Crystal system,Density [g/m$^3$],Volume [$\mathring{A}^3$],Bulk modulus[GPa],Shear modulus [GPa],Poisson,Metal,Experimental report
1236,Sr3Al3N5,"[Element Al, Element N, Element Sr]",Sr3 Al3 N5,crystal_system=<CrystalSystem.tri: 'Triclinic'> symbol='P-1' number=2 point_group='-1' symprec=0.1 version='1.16.2',tri,4.256963955118123,322.8565549434943,103.80811501677566,52.132526042542366,0.2849063096270351,False,False
1237,LiAsPd2,"[Element As, Element Li, Element Pd]",Li1 As1 Pd2,crystal_system=<CrystalSystem.cubic: 'Cubic'> symbol='Fm-3m' number=225 point_group='m-3m' symprec=0.1 version='1.16.2',cubic,8.649989213015834,56.57407983725972,103.81352573378183,28.34120031535126,0.3748849900553073,True,False
1238,Sb2Rh,"[Element Rh, Element Sb]",Sb2 Rh1,crystal_system=<CrystalSystem.mono: 'Monoclinic'> symbol='P2_1/c' number=14 point_group='2/m' symprec=0.1 version='1.16.2',mono,8.659971457025462,265.70668472573783,103.84780298202773,58.25145829992662,0.2637144395739778,True,True
1239,Zr3Fe,"[Element Fe, Element Zr]",Zr3 Fe1,crystal_system=<CrystalSystem.ortho: 'Orthorhombic'> symbol='Cmcm' number=63 point_group='mmm' symprec=0.1 version='1.16.2',ortho,6.854301717359107,159.65910873840363,103.85077402544015,35.92074788719983,0.3449343949548191,True,True
1240,SbPd,"[Element Pd, Element Sb]",Sb1 Pd1,crystal_system=<CrystalSystem.hex_: 'Hexagonal'> symbol='P6_3/mmc' number=194 point_group='6/mmm' symprec=0.1 version='1.16.2',hex_,9.17587856653722,82.58649054022462,103.96730018667266,29.47131140521391,0.37050253049052,True,True
1241,Ba4Y(CuO3)3,"[Element Ba, Element Cu, Element O, Element Y]",Ba4 Y1 Cu3 O9,crystal_system=<CrystalSystem.cubic: 'Cubic'> symbol='Pm-3n' number=223 point_group='m-3m' symprec=0.1 version='1.16.2',cubic,5.9357037540432716,544.316092233449,103.97204047800307,51.024237693227136,0.28912139525103275,True,True
1242,NaScO2,"[Element Na, Element O, Element Sc]",Na1 Sc1 O2,crystal_system=<CrystalSystem.trig: 'Trigonal'> symbol='R-3m' number=166 point_group='-3m' symprec=0.1 version='1.16.2',trig,3.5551752636581395,46.681725470193584,104.0632946679921,70.49031701996361,0.22369755412736717,False,True
1243,AlAu,"[Element Al, Element Au]",Al1 Au1,crystal_system=<CrystalSystem.mono: 'Monoclinic'> symbol='P2_1/m' number=11 point_group='2/m' symprec=0.1 version='1.16.2',mono,10.80591825383535,137.65589293772445,104.07011952010271,31.380241440749536,0.36300451129635264,True,True
1244,LiCu2Si,"[Element Cu, Element Li, Element Si]",Li1 Cu2 Si1,crystal_system=<CrystalSystem.cubic: 'Cubic'> symbol='Fm-3m' number=225 point_group='m-3m' symprec=0.1 version='1.16.2',cubic,5.79763390997432,46.43344282319207,104.07323892041703,46.494013154133235,0.30558028891826694,True,True
1245,LiAl2Pd,"[Element Al, Element Li, Element Pd]",Li1 Al2 Pd1,crystal_system=<CrystalSystem.cubic: 'Cubic'> symbol='Fm-3m' number=225 point_group='m-3m' symprec=0.1 version='1.16.2',cubic,5.0090049726222174,55.469732709796176,104.17637306872942,47.27688956611237,0.3029067535832995,True,True
1246,Zr3Hg,"[Element Hg, Element Zr]",Zr3 Hg1,crystal_system=<CrystalSystem.cubic: 'Cubic'> symbol='Pm-3n' number=223 point_group='m-3m' symprec=0.1 version='1.16.2',cubic,9.0110974681097,174.791268564328,104.21131943058964,57.690421139627546,0.2663247776387018,True,True
1247,CsVN2,"[Element Cs, Element N, Element V]",Cs1 V1 N2,crystal_system=<CrystalSystem.cubic: 'Cubic'> symbol='Fd-3m' number=227 point_group='m-3m' symprec=0.1 version='1.16.2',cubic,4.844912139002631,145.22549879139612,104.269555796666,43.44997233424246,0.31705718476943634,False,False
1248,BaHfN2,"[Element Ba, Element Hf, Element N]",Ba1 Hf1 N2,crystal_system=<CrystalSystem.tet: 'Tetragonal'> symbol='P4/nmm' number=129 point_group='4/mmm' symprec=0.1 version='1.16.2',tet,7.934364724872101,143.91670443254245,104.29094389859122,43.89792055163397,0.31543643806937255,False,True
1249,MgInNi2,"[Element In, Element Mg, Element Ni]",Mg1 In1 Ni2,crystal_system=<CrystalSystem.cubic: 'Cubic'> symbol='Fm-3m' number=225 point_group='m-3m' symprec=0.1 version='1.16.2',cubic,7.436433200542942,57.27807033009507,104.3046036971821,40.5124708714064,0.32805832670508767,True,True
1250,Ca(SiNi)2,"[Element Ca, Element Ni, Element Si]",Ca1 Si2 Ni2,crystal_system=<CrystalSystem.tet: 'Tetragonal'> symbol='I4/mmm' number=139 point_group='4/mmm' symprec=0.1 version='1.16.2',tet,4.687805806406319,75.67518932621843,104.40641615508918,56.20454254727164,0.27178834749696484,True,True
1251,Mg2As2O7,"[Element As, Element Mg, Element O]",Mg2 As2 O7,crystal_system=<CrystalSystem.mono: 'Monoclinic'> symbol='C2/m' number=12 point_group='2/m' symprec=0.1 version='1.16.2',mono,3.963532091727043,130.0639633429276,104.48566516044556,48.22865921814946,0.29998380392683305,False,True
1252,Li3AlN2,"[Element Al, Element Li, Element N]",Li3 Al1 N2,crystal_system=<CrystalSystem.cubic: 'Cubic'> symbol='Ia-3' number=206 point_group='m-3' symprec=0.1 version='1.16.2',cubic,2.409502578555559,418.00710276011716,104.49318548645411,100.91834628697897,0.1347049093944649,False,True
1253,Sr(PPd)2,"[Element P, Element Pd, Element Sr]",Sr1 P2 Pd2,crystal_system=<CrystalSystem.tet: 'Tetragonal'> symbol='I4/mmm' number=139 point_group='4/mmm' symprec=0.1 version='1.16.2',tet,6.816730776622962,88.28159294416308,104.7184245689383,49.58437927830177,0.2955225164288152,True,True
1254,YCuP2,"[Element Cu, Element P, Element Y]",Y1 Cu1 P2,crystal_system=<CrystalSystem.tet: 'Tetragonal'> symbol='P4/nmm' number=129 point_group='4/mmm' symprec=0.1 version='1.16.2',tet,5.277175449533958,134.92768614051872,104.72739012656908,49.03833625954256,0.2974852657138902,True,True
1255,YFe5,"[Element Fe, Element Y]",Y1 Fe5,crystal_system=<CrystalSystem.hex_: 'Hexagonal'> symbol='P6/mmm' number=191 point_group='6/mmm' symprec=0.1 version='1.16.2',hex_,6.8162536618822696,89.68205826378515,104.77274148414912,67.78977753868804,0.23388501214797625,True,True
1256,Si3NiP4,"[Element Ni, Element P, Element Si]",Si3 Ni1 P4,crystal_system=<CrystalSystem.tet: 'Tetragonal'> symbol='I-42m' number=121 point_group='-42m' symprec=0.1 version='1.16.2',tet,3.206156835554741,138.20486133585464,104.81480807650829,61.37223446658909,0.2550445155377687,False,True
1257,LiRuN,"[Element Li, Element N, Element Ru]",Li1 Ru1 N1,crystal_system=<CrystalSystem.ortho: 'Orthorhombic'> symbol='Pnma' number=62 point_group='mmm' symprec=0.1 version='1.16.2',ortho,5.943440264048728,136.3622068466154,104.82218518454991,57.830820690806036,0.26699746876741287,False,False
1258,Ti6Sn5,"[Element Sn, Element Ti]",Ti6 Sn5,crystal_system=<CrystalSystem.hex_: 'Hexagonal'> symbol='P6_3/mmc' number=194 point_group='6/mmm' symprec=0.1 version='1.16.2',hex_,6.890681395492583,424.4930276250376,104.97869626797419,55.43769194397115,0.27547941501679957,True,True
1259,SrPbO3,"[Element O, Element Pb, Element Sr]",Sr1 Pb1 O3,crystal_system=<CrystalSystem.ortho: 'Orthorhombic'> symbol='Pnma' number=62 point_group='mmm' symprec=0.1 version='1.16.2',ortho,7.669326838228552,296.90377048683945,104.9957940466646,49.80188680300189,0.2952164809536204,False,True
1260,CaO,"[Element Ca, Element O]",Ca1 O1,crystal_system=<CrystalSystem.cubic: 'Cubic'> symbol='Fm-3m' number=225 point_group='m-3m' symprec=0.1 version='1.16.2',cubic,3.3530837486789946,27.771067003632275,105.00705821692847,74.17312184445225,0.21412817770303635,False,True
1261,Al2Au,"[Element Al, Element Au]",Al2 Au1,crystal_system=<CrystalSystem.cubic: 'Cubic'> symbol='Fm-3m' number=225 point_group='m-3m' symprec=0.1 version='1.16.2',cubic,7.698281279708587,54.12616989996361,105.02192339002549,33.240917433239524,0.3568463428223174,True,True
1262,BaRuO3,"[Element Ba, Element O, Element Ru]",Ba1 Ru1 O3,crystal_system=<CrystalSystem.trig: 'Trigonal'> symbol='R-3m' number=166 point_group='-3m' symprec=0.1 version='1.16.2',trig,6.817437184487096,209.27383936981565,105.05208846632883,40.45783230716103,0.32934661799913106,True,True
1263,CaMoN3,"[Element Ca, Element Mo, Element N]",Ca1 Mo1 N3,crystal_system=<CrystalSystem.mono: 'Monoclinic'> symbol='C2/m' number=12 point_group='2/m' symprec=0.1 version='1.16.2',mono,4.220453189740689,140.0983293035419,105.17757809200393,45.50632604457913,0.31093599953906237,False,False
1264,MgCO3,"[Element C, Element Mg, Element O]",Mg1 C1 O3,crystal_system=<CrystalSystem.trig: 'Trigonal'> symbol='R-3c' number=167 point_group='-3m' symprec=0.1 version='1.16.2',trig,3.023645157788725,92.60777472300774,105.29752934273122,63.00770982314602,0.2505634984435923,False,True
1265,Li2PdO3,"[Element Li, Element O, Element Pd]",Li2 Pd1 O3,crystal_system=<CrystalSystem.mono: 'Monoclinic'> symbol='C2/m' number=12 point_group='2/m' symprec=0.1 version='1.16.2',mono,5.203738011980649,107.41088670227718,105.34123804148119,56.84899890338814,0.2713066808706989,False,False
1266,Ni3Se2,"[Element Ni, Element Se]",Ni3 Se2,crystal_system=<CrystalSystem.trig: 'Trigonal'> symbol='R32' number=155 point_group='32' symprec=0.1 version='1.16.2',trig,7.453948229834487,74.40625602044574,105.49026959533522,46.581780063276156,0.3075411875828235,True,True
1267,IrSe2,"[Element Ir, Element Se]",Ir1 Se2,crystal_system=<CrystalSystem.ortho: 'Orthorhombic'> symbol='Pnma' number=62 point_group='mmm' symprec=0.1 version='1.16.2',ortho,9.752430302247923,476.9405361681865,105.51872217781668,53.523700814754164,0.28305885214071524,False,True
1268,Y2Si2Rh,"[Element Rh, Element Si, Element Y]",Y2 Si2 Rh1,crystal_system=<CrystalSystem.mono: 'Monoclinic'> symbol='C2/m' number=12 point_group='2/m' symprec=0.1 version='1.16.2',mono,5.698204080032498,196.3481859615543,105.59075305443868,62.55669671692498,0.2526288367371238,True,True
1269,Zr3Te,"[Element Te, Element Zr]",Zr3 Te1,crystal_system=<CrystalSystem.tet: 'Tetragonal'> symbol='I-4' number=82 point_group='-4' symprec=0.1 version='1.16.2',tet,7.247072312870821,367.77766445040993,105.68118487565216,39.20065399027743,0.3349419315091385,True,True
1270,Sr2CuO4,"[Element Cu, Element O, Element Sr]",Sr2 Cu1 O4,crystal_system=<CrystalSystem.tet: 'Tetragonal'> symbol='I4/mmm' number=139 point_group='4/mmm' symprec=0.1 version='1.16.2',tet,5.521676770588147,91.05639779639493,105.69462070908162,54.97195255947881,0.2783721538967239,True,False
1271,ScGaCu2,"[Element Cu, Element Ga, Element Sc]",Sc1 Ga1 Cu2,crystal_system=<CrystalSystem.cubic: 'Cubic'> symbol='Fm-3m' number=225 point_group='m-3m' symprec=0.1 version='1.16.2',cubic,6.9600645348543635,57.681942822949885,105.70200979212885,30.13583941229922,0.3698205395676015,True,True
1272,YSF,"[Element F, Element S, Element Y]",Y1 S1 F1,crystal_system=<CrystalSystem.tet: 'Tetragonal'> symbol='P4/nmm' number=129 point_group='4/mmm' symprec=0.1 version='1.16.2',tet,4.783357557393636,97.18044711174419,105.77298045879962,53.698147820107515,0.28290158573396595,False,True
1273,NaSi2Pd3,"[Element Na, Element Pd, Element Si]",Na1 Si2 Pd3,crystal_system=<CrystalSystem.ortho: 'Orthorhombic'> symbol='Imm2' number=44 point_group='mm2' symprec=0.1 version='1.16.2',ortho,6.72874271289536,196.64691624078557,105.81118391824454,44.98203067682714,0.3138241033607255,True,True
1274,ZrAg,"[Element Ag, Element Zr]",Zr1 Ag1,crystal_system=<CrystalSystem.tet: 'Tetragonal'> symbol='P4/nmm' number=129 point_group='4/mmm' symprec=0.1 version='1.16.2',tet,8.25859208312672,80.06216377505704,105.84720298473442,46.759899877599295,0.3074675835372881,True,True
1275,VPO4,"[Element O, Element P, Element V]",V1 P1 O4,crystal_system=<CrystalSystem.ortho: 'Orthorhombic'> symbol='Cmcm' number=63 point_group='mmm' symprec=0.1 version='1.16.2',ortho,3.7579271848251468,257.90175887262524,105.95497214961742,65.9149782816354,0.24237194605546744,False,True
1276,TiZn2,"[Element Ti, Element Zn]",Ti1 Zn2,crystal_system=<CrystalSystem.hex_: 'Hexagonal'> symbol='P6_3/mmc' number=194 point_group='6/mmm' symprec=0.1 version='1.16.2',hex_,6.681383939256305,177.63590646068917,105.9856529266008,63.46502371504854,0.25041413462880857,True,True
1277,CuAgO2,"[Element Ag, Element Cu, Element O]",Cu1 Ag1 O2,crystal_system=<CrystalSystem.ortho: 'Orthorhombic'> symbol='Pmmm' number=47 point_group='mmm' symprec=0.1 version='1.16.2',ortho,6.61680193408205,51.04811002645878,105.99401820833154,16.325227233517467,0.4267505011732286,True,False
1278,CoSe2,"[Element Co, Element Se]",Co1 Se2,crystal_system=<CrystalSystem.ortho: 'Orthorhombic'> symbol='Pnnm' number=58 point_group='mmm' symprec=0.1 version='1.16.2',ortho,6.900483250700043,104.36753164439514,106.02524900661031,55.41152923266077,0.2774561567853769,True,True
1279,HfAl3,"[Element Al, Element Hf]",Hf1 Al3,crystal_system=<CrystalSystem.tet: 'Tetragonal'> symbol='I4/mmm' number=139 point_group='4/mmm' symprec=0.1 version='1.16.2',tet,6.398333140073273,134.660482764212,106.03289474390536,79.79058303283765,0.19919803222619178,True,True
1280,Al9Co2,"[Element Al, Element Co]",Al9 Co2,crystal_system=<CrystalSystem.mono: 'Monoclinic'> symbol='P2_1/c' number=14 point_group='2/m' symprec=0.1 version='1.16.2',mono,3.718700101264907,322.13236842135274,106.10178039671374,73.85708166937226,0.21750066797260242,True,True
1281,ThSi2,"[Element Si, Element Th]",Th1 Si2,crystal_system=<CrystalSystem.hex_: 'Hexagonal'> symbol='P6/mmm' number=191 point_group='6/mmm' symprec=0.1 version='1.16.2',hex_,7.823468969372171,61.172659513529,106.1478839876321,47.001441371544274,0.3070786464417086,True,True
1282,Ba2ZrO4,"[Element Ba, Element O, Element Zr]",Ba2 Zr1 O4,crystal_system=<CrystalSystem.tet: 'Tetragonal'> symbol='I4/mmm' number=139 point_group='4/mmm' symprec=0.1 version='1.16.2',tet,5.959897098396697,119.77140138378307,106.2348629723758,56.33902418120192,0.27467010950098125,False,True
1283,MnO2,"[Element Mn, Element O]",Mn1 O2,crystal_system=<CrystalSystem.tet: 'Tetragonal'> symbol='I4/m' number=87 point_group='4/m' symprec=0.1 version='1.16.2',tet,4.28480128094109,134.76660221473983,106.34532714708719,28.88035313946428,0.37548578378361563,False,True
1284,ScCdPd2,"[Element Cd, Element Pd, Element Sc]",Sc1 Cd1 Pd2,crystal_system=<CrystalSystem.cubic: 'Cubic'> symbol='Fm-3m' number=225 point_group='m-3m' symprec=0.1 version='1.16.2',cubic,8.856254553941351,69.4134339022319,106.34993948858721,10.310867017305714,0.4530414490628278,True,False
1285,BaBiO3,"[Element Ba, Element Bi, Element O]",Ba1 Bi1 O3,crystal_system=<CrystalSystem.mono: 'Monoclinic'> symbol='P2_1/c' number=14 point_group='2/m' symprec=0.1 version='1.16.2',mono,7.825829472632553,334.66604672074277,106.35290447961678,46.02758483749875,0.3108902536682222,False,True
1286,MnAgO2,"[Element Ag, Element Mn, Element O]",Mn1 Ag1 O2,crystal_system=<CrystalSystem.mono: 'Monoclinic'> symbol='C2/m' number=12 point_group='2/m' symprec=0.1 version='1.16.2',mono,6.466486922597943,50.02428543740265,106.37053829540966,35.540933159759874,0.34967991902675755,True,False
1287,Zr2Sb,"[Element Sb, Element Zr]",Zr2 Sb1,crystal_system=<CrystalSystem.tet: 'Tetragonal'> symbol='I4/mmm' number=139 point_group='4/mmm' symprec=0.1 version='1.16.2',tet,7.4076668884195,136.38552488421396,106.45319779562473,33.51544309161288,0.3575326689608881,True,True
1288,Sr2SnO4,"[Element O, Element Sn, Element Sr]",Sr2 Sn1 O4,crystal_system=<CrystalSystem.tet: 'Tetragonal'> symbol='P4_2/ncm' number=138 point_group='4/mmm' symprec=0.1 version='1.16.2',tet,5.682661727350975,418.3856102043846,106.46390962063437,49.86286293016579,0.29744518806859926,False,True
1289,Zr6Al2Co,"[Element Al, Element Co, Element Zr]",Zr6 Al2 Co1,crystal_system=<CrystalSystem.hex_: 'Hexagonal'> symbol='P-62m' number=189 point_group='-6m2' symprec=0.1 version='1.16.2',hex_,6.052919130865304,181.1282691255759,106.47312940084792,50.92492741911291,0.2937395339781409,True,True
1290,ScGa2Ni,"[Element Ga, Element Ni, Element Sc]",Sc1 Ga2 Ni1,crystal_system=<CrystalSystem.ortho: 'Orthorhombic'> symbol='Cmcm' number=63 point_group='mmm' symprec=0.1 version='1.16.2',ortho,6.591637740575756,122.47920118500221,106.51954382432233,59.945456518615956,0.263063988971001,True,True
1291,Ta5Sb4,"[Element Sb, Element Ta]",Ta5 Sb4,crystal_system=<CrystalSystem.tet: 'Tetragonal'> symbol='I4/m' number=87 point_group='4/m' symprec=0.1 version='1.16.2',tet,12.165759478115042,189.9679234943406,106.68878176798961,59.86664785252444,0.263642606995707,True,True
1292,Ti5Sn3,"[Element Sn, Element Ti]",Ti5 Sn3,crystal_system=<CrystalSystem.hex_: 'Hexagonal'> symbol='P6_3/mcm' number=193 point_group='6/mmm' symprec=0.1 version='1.16.2',hex_,6.504128194889782,304.05086297956177,106.70005640639522,48.42138542909428,0.3029095524332028,True,True
1293,ScAl2Ni,"[Element Al, Element Ni, Element Sc]",Sc1 Al2 Ni1,crystal_system=<CrystalSystem.ortho: 'Orthorhombic'> symbol='Cmcm' number=63 point_group='mmm' symprec=0.1 version='1.16.2',ortho,4.14797527253653,126.19242519578401,106.78765602940322,64.05672244169055,0.25005160758001727,True,True
1294,Sc2ZnPt,"[Element Pt, Element Sc, Element Zn]",Sc2 Zn1 Pt1,crystal_system=<CrystalSystem.cubic: 'Cubic'> symbol='Fm-3m' number=225 point_group='m-3m' symprec=0.1 version='1.16.2',cubic,8.075785246349351,72.05007087578595,106.79097887885777,41.18647419214132,0.3291298485451965,True,False
1295,Al4Bi2O9,"[Element Al, Element Bi, Element O]",Al4 Bi2 O9,crystal_system=<CrystalSystem.ortho: 'Orthorhombic'> symbol='Pbam' number=55 point_group='mmm' symprec=0.1 version='1.16.2',ortho,6.236129956572592,356.7483355293301,106.89426653646036,69.70148744056493,0.23218125157923966,False,True
1296,Ca2Sn3O8,"[Element Ca, Element O, Element Sn]",Ca2 Sn3 O8,crystal_system=<CrystalSystem.mono: 'Monoclinic'> symbol='C2/m' number=12 point_group='2/m' symprec=0.1 version='1.16.2',mono,5.173350188039524,181.12266579483466,106.97443703751246,45.42116248680519,0.3140227336833776,False,False
1297,Mg2PdRh,"[Element Mg, Element Pd, Element Rh]",Mg2 Pd1 Rh1,crystal_system=<CrystalSystem.cubic: 'Cubic'> symbol='Fm-3m' number=225 point_group='m-3m' symprec=0.1 version='1.16.2',cubic,7.1205897125668765,60.15119417105181,107.06294646794828,52.78395222443618,0.28828425460600615,True,False
1298,Al3Cr,"[Element Al, Element Cr]",Al3 Cr1,crystal_system=<CrystalSystem.tet: 'Tetragonal'> symbol='I4/mmm' number=139 point_group='4/mmm' symprec=0.1 version='1.16.2',tet,3.8038661764616606,58.03391651727654,107.08583423282468,82.77196746737886,0.19270075484815055,True,False
1299,As2Pd,"[Element As, Element Pd]",As2 Pd1,crystal_system=<CrystalSystem.cubic: 'Cubic'> symbol='Pa-3' number=205 point_group='m-3' symprec=0.1 version='1.16.2',cubic,7.771846403526801,219.0136206185571,107.097861441063,48.65969375100906,0.30270605789341115,True,True
1300,Zr2Ga,"[Element Ga, Element Zr]",Zr2 Ga1,crystal_system=<CrystalSystem.tet: 'Tetragonal'> symbol='I4/mcm' number=140 point_group='4/mmm' symprec=0.1 version='1.16.2',tet,6.867239993895625,121.95286529546414,107.1079742244033,47.49009590458466,0.30685348097241255,True,True
1301,ZrGe2,"[Element Ge, Element Zr]",Zr1 Ge2,crystal_system=<CrystalSystem.ortho: 'Orthorhombic'> symbol='Cmcm' number=63 point_group='mmm' symprec=0.1 version='1.16.2',ortho,7.1713953384316484,109.52516571009551,107.23081128877229,72.84242725490174,0.22305706884345014,True,True
1302,Zr2Co,"[Element Co, Element Zr]",Zr2 Co1,crystal_system=<CrystalSystem.tet: 'Tetragonal'> symbol='I4/mcm' number=140 point_group='4/mmm' symprec=0.1 version='1.16.2',tet,7.281141626833729,110.09891711566502,107.25910334146396,19.59626318828486,0.4138937601238556,True,True
1303,TiAl3,"[Element Al, Element Ti]",Ti1 Al3,crystal_system=<CrystalSystem.tet: 'Tetragonal'> symbol='I4/mmm' number=139 point_group='4/mmm' symprec=0.1 version='1.16.2',tet,3.420287434298525,62.53764467945612,107.48491068005231,88.55792078195343,0.1768058592336742,True,True
1304,Mg3Ru2,"[Element Mg, Element Ru]",Mg3 Ru2,crystal_system=<CrystalSystem.cubic: 'Cubic'> symbol='P4_132' number=213 point_group='432' symprec=0.1 version='1.16.2',cubic,5.548439932684171,329.27423095861525,107.49318046407394,51.14659184972297,0.29466134472744754,True,True