,Formula,Elements,Composition,Symmetry,Crystal system,Density [g/m$^3$],Volume [$\mathring{A}^3$],Bulk modulus[GPa],Shear modulus [GPa],Poisson,Metal,Experimental report
479,LiZnAg2,"[Element Ag, Element Li, Element Zn]",Li1 Zn1 Ag2,crystal_system=<CrystalSystem.cubic: 'Cubic'> symbol='Fm-3m' number=225 point_group='m-3m' symprec=0.1 version='1.16.2',cubic,7.873867175950649,60.75524403272618,63.32387103818968,19.189560135895643,0.36238201021479727,True,False
480,CsScO2,"[Element Cs, Element O, Element Sc]",Cs1 Sc1 O2,crystal_system=<CrystalSystem.cubic: 'Cubic'> symbol='Fd-3m' number=227 point_group='m-3m' symprec=0.1 version='1.16.2',cubic,3.777341310414576,184.51125913256803,63.36709513848437,15.489153942315397,0.3869902171226856,False,False
481,AlAgS2,"[Element Ag, Element Al, Element S]",Al1 Ag1 S2,crystal_system=<CrystalSystem.tet: 'Tetragonal'> symbol='I-42d' number=122 point_group='-42m' symprec=0.1 version='1.16.2',tet,3.900206524762423,169.43391449112184,63.3971990967936,21.091924637860874,0.3502586161568412,False,True
482,Sc3In,"[Element In, Element Sc]",Sc3 In1,crystal_system=<CrystalSystem.hex_: 'Hexagonal'> symbol='P6_3/mmc' number=194 point_group='6/mmm' symprec=0.1 version='1.16.2',hex_,4.464641710458214,185.73177687677045,63.46112829954046,39.36406910380119,0.24299561267356123,True,True
483,SrWO4,"[Element O, Element Sr, Element W]",Sr1 W1 O4,crystal_system=<CrystalSystem.tet: 'Tetragonal'> symbol='I4_1/a' number=88 point_group='4/m' symprec=0.1 version='1.16.2',tet,6.305422983224986,176.68614824725717,63.493536048670244,29.045109360928468,0.3015373117274265,False,True
484,Yb(AlSi)2,"[Element Al, Element Si, Element Yb]",Yb1 Al2 Si2,crystal_system=<CrystalSystem.trig: 'Trigonal'> symbol='P-3m1' number=164 point_group='-3m' symprec=0.1 version='1.16.2',trig,4.558529166416313,103.15204766116896,63.5221156985307,42.25871293004981,0.22774378587900482,True,True
485,InCuS2,"[Element Cu, Element In, Element S]",In1 Cu1 S2,crystal_system=<CrystalSystem.tet: 'Tetragonal'> symbol='I-42d' number=122 point_group='-42m' symprec=0.1 version='1.16.2',tet,4.750316402887571,169.53429046171712,63.5761840419632,25.497561982333856,0.32311876097279313,True,True
486,CeGa2,"[Element Ce, Element Ga]",Ce1 Ga2,crystal_system=<CrystalSystem.hex_: 'Hexagonal'> symbol='P6/mmm' number=191 point_group='6/mmm' symprec=0.1 version='1.16.2',hex_,6.837745059892232,67.89133237210012,63.59099848628654,54.561221283263436,0.1664067776125939,True,True
487,LiSn4Rh,"[Element Li, Element Rh, Element Sn]",Li1 Sn4 Rh1,crystal_system=<CrystalSystem.tet: 'Tetragonal'> symbol='I4/mcm' number=140 point_group='4/mmm' symprec=0.1 version='1.16.2',tet,7.72550363999332,251.34795612223934,63.62723466176793,39.822768805914876,0.2410793449898559,True,True
488,Ca6Ag16N,"[Element Ag, Element Ca, Element N]",Ca6 Ag16 N1,crystal_system=<CrystalSystem.cubic: 'Cubic'> symbol='Im-3m' number=229 point_group='m-3m' symprec=0.1 version='1.16.2',cubic,7.0070088188531585,469.31223124258827,63.64846324494894,23.474204155264275,0.33578316890693294,True,True
489,Ba(NiAs)2,"[Element As, Element Ba, Element Ni]",Ba1 Ni2 As2,crystal_system=<CrystalSystem.tet: 'Tetragonal'> symbol='I4/mmm' number=139 point_group='4/mmm' symprec=0.1 version='1.16.2',tet,6.664653458379785,100.79784453336158,63.6837617764038,26.594249326410793,0.31671402515684133,True,True
490,ScHg3,"[Element Hg, Element Sc]",Sc1 Hg3,crystal_system=<CrystalSystem.hex_: 'Hexagonal'> symbol='P6_3/mmc' number=194 point_group='6/mmm' symprec=0.1 version='1.16.2',hex_,12.408075597361528,173.09914560592654,63.70159368510484,20.189846680484408,0.35667042108332997,True,True
491,ZnSnP2,"[Element P, Element Sn, Element Zn]",Zn1 Sn1 P2,crystal_system=<CrystalSystem.tet: 'Tetragonal'> symbol='I-42d' number=122 point_group='-42m' symprec=0.1 version='1.16.2',tet,4.525181829974542,180.59078792277623,63.76946477597305,38.6774363110562,0.24774030945560177,False,True
492,Ba2TiO4,"[Element Ba, Element O, Element Ti]",Ba2 Ti1 O4,crystal_system=<CrystalSystem.mono: 'Monoclinic'> symbol='P2_1/c' number=14 point_group='2/m' symprec=0.1 version='1.16.2',mono,5.0883013433726365,504.5528493342891,63.867326443089354,28.66229511915449,0.30480973237083375,False,True
493,SrPdF4,"[Element F, Element Pd, Element Sr]",Sr1 Pd1 F4,crystal_system=<CrystalSystem.tet: 'Tetragonal'> symbol='I4/mcm' number=140 point_group='4/mmm' symprec=0.1 version='1.16.2',tet,4.944867487441808,181.3603153121157,63.87046107764724,22.717659528822928,0.34100853130244335,False,True
494,Cu3PSe4,"[Element Cu, Element P, Element Se]",Cu3 P1 Se4,crystal_system=<CrystalSystem.ortho: 'Orthorhombic'> symbol='Pmn2_1' number=31 point_group='mm2' symprec=0.1 version='1.16.2',ortho,5.477755023230643,325.84868926381984,63.89667643927913,27.69917768555822,0.3106161779977889,True,True
495,CrAgSe2,"[Element Ag, Element Cr, Element Se]",Cr1 Ag1 Se2,crystal_system=<CrystalSystem.trig: 'Trigonal'> symbol='R3m' number=160 point_group='3m' symprec=0.1 version='1.16.2',trig,6.224036244495957,84.78312531820237,63.916946689863636,22.823245053840292,0.34045199325413766,False,True
496,Sc2TlCd,"[Element Cd, Element Sc, Element Tl]",Sc2 Tl1 Cd1,crystal_system=<CrystalSystem.cubic: 'Cubic'> symbol='Fm-3m' number=225 point_group='m-3m' symprec=0.1 version='1.16.2',cubic,7.547169472608209,89.48406551338122,63.96780175190719,21.715486966170133,0.34751708938074394,True,False
497,ScSn2,"[Element Sc, Element Sn]",Sc1 Sn2,crystal_system=<CrystalSystem.tet: 'Tetragonal'> symbol='I4_1/amd' number=141 point_group='4/mmm' symprec=0.1 version='1.16.2',tet,6.641478338506865,282.4047354783488,64.04253562038687,34.19140654815851,0.27338576618182664,True,True
498,KMgF3,"[Element F, Element K, Element Mg]",K1 Mg1 F3,crystal_system=<CrystalSystem.cubic: 'Cubic'> symbol='Pm-3m' number=221 point_group='m-3m' symprec=0.1 version='1.16.2',cubic,3.174844984847381,62.97202846293481,64.075877831704,42.25524630523333,0.22969084347727867,False,True
499,LiAl3,"[Element Al, Element Li]",Li1 Al3,crystal_system=<CrystalSystem.cubic: 'Cubic'> symbol='Pm-3m' number=221 point_group='m-3m' symprec=0.1 version='1.16.2',cubic,2.2874078417616746,63.800383894680834,64.08862023532521,43.79887422931064,0.2216936644010966,True,True
500,MgCrO4,"[Element Cr, Element Mg, Element O]",Mg1 Cr1 O4,crystal_system=<CrystalSystem.ortho: 'Orthorhombic'> symbol='Cmcm' number=63 point_group='mmm' symprec=0.1 version='1.16.2',ortho,3.218590985678326,144.76612491605178,64.14009612561668,41.398371080553204,0.23442001265026216,False,True
501,Sc3Al,"[Element Al, Element Sc]",Sc3 Al1,crystal_system=<CrystalSystem.hex_: 'Hexagonal'> symbol='P6_3/mmc' number=194 point_group='6/mmm' symprec=0.1 version='1.16.2',hex_,3.0668444230912004,175.26617349782586,64.2078798431267,41.40490783309776,0.23461630023515498,True,False
502,BaCa4(CuN2)2,"[Element Ba, Element Ca, Element Cu, Element N]",Ba1 Ca4 Cu2 N4,crystal_system=<CrystalSystem.tet: 'Tetragonal'> symbol='P4/ncc' number=130 point_group='4/mmm' symprec=0.1 version='1.16.2',tet,3.719032012407539,858.6289182876634,64.24258788550839,31.152771700123758,0.2912763721252293,False,True
503,YZnSn,"[Element Sn, Element Y, Element Zn]",Y1 Zn1 Sn1,crystal_system=<CrystalSystem.hex_: 'Hexagonal'> symbol='P6_3/mmc' number=194 point_group='6/mmm' symprec=0.1 version='1.16.2',hex_,6.526354684939765,277.86931692437696,64.26682203885375,43.07085222156775,0.22609523367425086,True,True
504,SrNiF6,"[Element F, Element Ni, Element Sr]",Sr1 Ni1 F6,crystal_system=<CrystalSystem.trig: 'Trigonal'> symbol='R-3m' number=166 point_group='-3m' symprec=0.1 version='1.16.2',trig,4.487613887415892,96.31948554640091,64.33045201911467,22.550990739191224,0.34306338586580437,False,True
505,CuSe2,"[Element Cu, Element Se]",Cu1 Se2,crystal_system=<CrystalSystem.ortho: 'Orthorhombic'> symbol='Pnnm' number=58 point_group='mmm' symprec=0.1 version='1.16.2',ortho,6.2788330655821145,117.14053904044698,64.3552456430903,23.71268163981828,0.3359199098576722,True,True
506,KPtN,"[Element K, Element N, Element Pt]",K1 Pt1 N1,crystal_system=<CrystalSystem.tet: 'Tetragonal'> symbol='P4_2/mmc' number=131 point_group='4/mmm' symprec=0.1 version='1.16.2',tet,6.670059015428133,123.57537750329305,64.48062429488604,34.44372602248626,0.2732827818804761,True,False
507,LaAu,"[Element Au, Element La]",La1 Au1,crystal_system=<CrystalSystem.ortho: 'Orthorhombic'> symbol='Cmcm' number=63 point_group='mmm' symprec=0.1 version='1.16.2',ortho,10.085084460727936,110.60465468780858,64.61289163298068,15.99696456534014,0.385646466399743,True,True
508,MgAg,"[Element Ag, Element Mg]",Mg1 Ag1,crystal_system=<CrystalSystem.cubic: 'Cubic'> symbol='Pm-3m' number=221 point_group='m-3m' symprec=0.1 version='1.16.2',cubic,6.085510065117588,36.06579560447974,64.63375134227627,29.517936486937426,0.30182138952079873,True,True
509,ScSb,"[Element Sb, Element Sc]",Sc1 Sb1,crystal_system=<CrystalSystem.cubic: 'Cubic'> symbol='Fm-3m' number=225 point_group='m-3m' symprec=0.1 version='1.16.2',cubic,5.4158656371335345,51.116165623039805,64.72998178183303,34.70907388264548,0.27254768937180895,True,True
510,PdPbF4,"[Element F, Element Pb, Element Pd]",Pd1 Pb1 F4,crystal_system=<CrystalSystem.tet: 'Tetragonal'> symbol='I4/mcm' number=140 point_group='4/mmm' symprec=0.1 version='1.16.2',tet,6.923125044480918,186.9007480803271,64.74217233437214,18.42264891837013,0.3700489923964334,False,True
511,MgSc2Al,"[Element Al, Element Mg, Element Sc]",Mg1 Sc2 Al1,crystal_system=<CrystalSystem.cubic: 'Cubic'> symbol='Fm-3m' number=225 point_group='m-3m' symprec=0.1 version='1.16.2',cubic,2.8191196948838413,83.16972055594582,64.74224699690807,41.9446855079554,0.23359593412844606,True,False
512,RbVF3,"[Element F, Element Rb, Element V]",Rb1 V1 F3,crystal_system=<CrystalSystem.cubic: 'Cubic'> symbol='Pm-3m' number=221 point_group='m-3m' symprec=0.1 version='1.16.2',cubic,4.392090674799269,73.12138287356564,64.80412016507978,35.306202370748,0.26946006062637057,False,True
513,LiIn2Pd,"[Element In, Element Li, Element Pd]",Li1 In2 Pd1,crystal_system=<CrystalSystem.cubic: 'Cubic'> symbol='Fm-3m' number=225 point_group='m-3m' symprec=0.1 version='1.16.2',cubic,8.075753467683795,70.52715520672717,64.8315212927651,-2.7030227499045267,0.5211403177689812,True,True
514,Ag3Ge5P6,"[Element Ag, Element Ge, Element P]",Ag3 Ge5 P6,crystal_system=<CrystalSystem.cubic: 'Cubic'> symbol='I-43m' number=217 point_group='-43m' symprec=0.1 version='1.16.2',cubic,5.220634131745827,555.1297730873276,64.90887161418063,35.70225367137525,0.2675925726995946,False,True
515,BaGePt,"[Element Ba, Element Ge, Element Pt]",Ba1 Ge1 Pt1,crystal_system=<CrystalSystem.cubic: 'Cubic'> symbol='P2_13' number=198 point_group='23' symprec=0.1 version='1.16.2',cubic,8.537302572652182,315.13607664320926,64.95091487845119,22.234148177581574,0.34636924950088405,True,True
516,Sc2In,"[Element In, Element Sc]",Sc2 In1,crystal_system=<CrystalSystem.hex_: 'Hexagonal'> symbol='P6_3/mmc' number=194 point_group='6/mmm' symprec=0.1 version='1.16.2',hex_,4.898327057897486,138.80733843691704,65.01425877010084,38.22959467958546,0.25417409367411115,True,True
517,SrF2,"[Element F, Element Sr]",Sr1 F2,crystal_system=<CrystalSystem.cubic: 'Cubic'> symbol='Fm-3m' number=225 point_group='m-3m' symprec=0.1 version='1.16.2',cubic,4.2795094311514355,48.74194526371349,65.02474192575455,32.122213774228904,0.28792220178950945,False,True
518,YHg,"[Element Hg, Element Y]",Y1 Hg1,crystal_system=<CrystalSystem.cubic: 'Cubic'> symbol='Pm-3m' number=221 point_group='m-3m' symprec=0.1 version='1.16.2',cubic,9.442619416729679,50.90951433368942,65.05460326301794,26.53857952714857,0.3204445634821419,True,True
519,Zn3P2,"[Element P, Element Zn]",Zn3 P2,crystal_system=<CrystalSystem.tet: 'Tetragonal'> symbol='P4_2/nmc' number=137 point_group='4/mmm' symprec=0.1 version='1.16.2',tet,4.691224769052758,731.0822298364071,65.08038116667817,35.12826429228679,0.27126999221210596,False,True
520,LaAs,"[Element As, Element La]",La1 As1,crystal_system=<CrystalSystem.cubic: 'Cubic'> symbol='Fm-3m' number=225 point_group='m-3m' symprec=0.1 version='1.16.2',cubic,5.964602303974848,59.52923349055362,65.110782954607,39.879620561612434,0.24567862771378854,True,True
521,MoPbO4,"[Element Mo, Element O, Element Pb]",Mo1 Pb1 O4,crystal_system=<CrystalSystem.tet: 'Tetragonal'> symbol='I4_1/a' number=88 point_group='4/m' symprec=0.1 version='1.16.2',tet,6.813306023373099,178.95756495491838,65.14802527862895,23.052427341334422,0.341742817348637,False,True
522,CdGeP2,"[Element Cd, Element Ge, Element P]",Cd1 Ge1 P2,crystal_system=<CrystalSystem.tet: 'Tetragonal'> symbol='I-42d' number=122 point_group='-42m' symprec=0.1 version='1.16.2',tet,4.561961999018335,179.81329023906636,65.24205151161469,34.99590401548646,0.27248011588896914,False,True
523,LiAg2Ge,"[Element Ag, Element Ge, Element Li]",Li1 Ag2 Ge1,crystal_system=<CrystalSystem.cubic: 'Cubic'> symbol='Fm-3m' number=225 point_group='m-3m' symprec=0.1 version='1.16.2',cubic,7.630947618275482,64.26280250860393,65.24699777962162,19.81559769532765,0.362108616580058,True,True
524,LiZnP,"[Element Li, Element P, Element Zn]",Li1 Zn1 P1,crystal_system=<CrystalSystem.cubic: 'Cubic'> symbol='F-43m' number=216 point_group='-43m' symprec=0.1 version='1.16.2',cubic,3.7057765831868403,46.29883627834184,65.31398304021779,51.34211635707982,0.1885639420929271,False,True
525,Ca5(CoN2)2,"[Element Ca, Element Co, Element N]",Ca5 Co2 N4,crystal_system=<CrystalSystem.tet: 'Tetragonal'> symbol='P4/ncc' number=130 point_group='4/mmm' symprec=0.1 version='1.16.2',tet,3.1816856136298663,781.361749010281,65.31532043027727,33.9324315002556,0.2785844653236292,True,True
526,AgAuO2,"[Element Ag, Element Au, Element O]",Ag1 Au1 O2,crystal_system=<CrystalSystem.mono: 'Monoclinic'> symbol='P2_1/c' number=14 point_group='2/m' symprec=0.1 version='1.16.2',mono,9.66719256736608,115.7161805496547,65.3276467958114,17.201651220507575,0.3789665020527678,False,False
527,Mg2Ni,"[Element Mg, Element Ni]",Mg2 Ni1,crystal_system=<CrystalSystem.hex_: 'Hexagonal'> symbol='P6_222' number=180 point_group='622' symprec=0.1 version='1.16.2',hex_,3.5592816942022925,300.36648344396997,65.42809187351358,29.3391094004567,0.304946352982917,True,True
528,HoF3,"[Element F, Element Ho]",Ho1 F3,crystal_system=<CrystalSystem.ortho: 'Orthorhombic'> symbol='Pnma' number=62 point_group='mmm' symprec=0.1 version='1.16.2',ortho,7.892550619905746,186.76649895523659,65.46805309053008,39.92963897923416,0.24656837527197692,False,True
529,Mg2Rh,"[Element Mg, Element Rh]",Mg2 Rh1,crystal_system=<CrystalSystem.tet: 'Tetragonal'> symbol='I4/mmm' number=139 point_group='4/mmm' symprec=0.1 version='1.16.2',tet,4.94773504978135,50.85102666452417,65.49886363505144,39.87241362157353,0.24696927563699528,True,True
530,MnCu2SnS4,"[Element Cu, Element Mn, Element S, Element Sn]",Mn1 Cu2 Sn1 S4,crystal_system=<CrystalSystem.tet: 'Tetragonal'> symbol='I-42m' number=121 point_group='-42m' symprec=0.1 version='1.16.2',tet,4.336961616284762,164.25585405708696,65.58827145570743,23.720686624742783,0.33862417357580826,True,True
531,Sc3Hg,"[Element Hg, Element Sc]",Sc3 Hg1,crystal_system=<CrystalSystem.hex_: 'Hexagonal'> symbol='P6_3/mmc' number=194 point_group='6/mmm' symprec=0.1 version='1.16.2',hex_,6.243275288073444,178.44501487394166,65.59892386838499,34.76585046777227,0.2747962290510128,True,False
532,Li2SbPd,"[Element Li, Element Pd, Element Sb]",Li2 Sb1 Pd1,crystal_system=<CrystalSystem.cubic: 'Cubic'> symbol='F-43m' number=216 point_group='-43m' symprec=0.1 version='1.16.2',cubic,6.315422437460469,63.646321607103935,65.6266771926299,26.91350721285189,0.3196093549553899,True,True
533,Y2S3,"[Element S, Element Y]",Y2 S3,crystal_system=<CrystalSystem.mono: 'Monoclinic'> symbol='P2_1/m' number=11 point_group='2/m' symprec=0.1 version='1.16.2',mono,3.8050672458027317,717.4624790592753,65.679999938509,30.232057138647363,0.3004678343844323,False,True
534,MgGaAg2,"[Element Ag, Element Ga, Element Mg]",Mg1 Ga1 Ag2,crystal_system=<CrystalSystem.cubic: 'Cubic'> symbol='Fm-3m' number=225 point_group='m-3m' symprec=0.1 version='1.16.2',cubic,7.562702303098382,68.0148268471672,65.70098325842753,5.521531215982471,0.45912489555331293,True,False
535,ThBiTe,"[Element Bi, Element Te, Element Th]",Th1 Bi1 Te1,crystal_system=<CrystalSystem.tet: 'Tetragonal'> symbol='P4/nmm' number=129 point_group='4/mmm' symprec=0.1 version='1.16.2',tet,9.95304117363594,189.73360008215445,65.70413295572254,27.816091105969395,0.31450043672130124,True,True
536,Sr5P3ClO12,"[Element Cl, Element O, Element P, Element Sr]",Sr5 P3 Cl1 O12,crystal_system=<CrystalSystem.hex_: 'Hexagonal'> symbol='P6_3/m' number=176 point_group='6/m' symprec=0.1 version='1.16.2',hex_,3.9706775046463902,634.3825332374474,65.84006776539908,36.524520066142685,0.2659132010662978,False,True
537,ZnSiAs2,"[Element As, Element Si, Element Zn]",Zn1 Si1 As2,crystal_system=<CrystalSystem.tet: 'Tetragonal'> symbol='I-42d' number=122 point_group='-42m' symprec=0.1 version='1.16.2',tet,4.700003754302898,171.94529125925024,65.88488083367864,42.18925692803532,0.2361455282260875,False,True
538,Cu2SnS3,"[Element Cu, Element S, Element Sn]",Cu2 Sn1 S3,crystal_system=<CrystalSystem.mono: 'Monoclinic'> symbol='Cc' number=9 point_group='m' symprec=0.1 version='1.16.2',mono,4.738561996359492,239.69270829264312,65.90881236717956,27.209212390456667,0.31855335658060097,False,True
539,YBi2BrO4,"[Element Bi, Element Br, Element O, Element Y]",Y1 Bi2 Br1 O4,crystal_system=<CrystalSystem.tet: 'Tetragonal'> symbol='P4/mmm' number=123 point_group='4/mmm' symprec=0.1 version='1.16.2',tet,7.529211582333204,143.52447007380331,65.92429749275732,35.04284912762767,0.2742237130149901,False,True
540,Sr2ZnN2,"[Element N, Element Sr, Element Zn]",Sr2 Zn1 N2,crystal_system=<CrystalSystem.tet: 'Tetragonal'> symbol='I4/mmm' number=139 point_group='4/mmm' symprec=0.1 version='1.16.2',tet,4.678095572931343,95.36453541221042,65.92948352560555,35.45339763296481,0.27199590529047696,False,True
541,Mg3Rh,"[Element Mg, Element Rh]",Mg3 Rh1,crystal_system=<CrystalSystem.hex_: 'Hexagonal'> symbol='P6_3cm' number=185 point_group='6mm' symprec=0.1 version='1.16.2',hex_,3.965831315444523,441.70836185918864,66.01066024888144,26.860957324181037,0.32084170213658464,True,True
542,PdPb2,"[Element Pb, Element Pd]",Pd1 Pb2,crystal_system=<CrystalSystem.tet: 'Tetragonal'> symbol='I4/mcm' number=140 point_group='4/mmm' symprec=0.1 version='1.16.2',tet,12.164739082784793,142.18832821338725,66.04928373481636,17.544912054908117,0.37798678228848515,True,True
543,EuF2,"[Element Eu, Element F]",Eu1 F2,crystal_system=<CrystalSystem.cubic: 'Cubic'> symbol='Fm-3m' number=225 point_group='m-3m' symprec=0.1 version='1.16.2',cubic,6.46351384963235,48.802763866280195,66.06427354142764,29.385699862038695,0.30631498219223485,True,True
544,CaSn2Rh,"[Element Ca, Element Rh, Element Sn]",Ca1 Sn2 Rh1,crystal_system=<CrystalSystem.ortho: 'Orthorhombic'> symbol='Cmcm' number=63 point_group='mmm' symprec=0.1 version='1.16.2',ortho,7.078834278555051,178.4686144539358,66.07184186319651,32.06377218122051,0.29114206644967755,True,True
545,SrCuF4,"[Element Cu, Element F, Element Sr]",Sr1 Cu1 F4,crystal_system=<CrystalSystem.tet: 'Tetragonal'> symbol='I4/mcm' number=140 point_group='4/mmm' symprec=0.1 version='1.16.2',tet,4.443780052704627,169.76871354312368,66.2261689879152,26.40752479021514,0.32401712413402267,False,True
546,Ti5Te4,"[Element Te, Element Ti]",Ti5 Te4,crystal_system=<CrystalSystem.tet: 'Tetragonal'> symbol='I4/m' number=87 point_group='4/m' symprec=0.1 version='1.16.2',tet,6.371114853352138,195.4075991021128,66.25088231133373,35.80954082307065,0.27100183218688223,True,True
547,CeAu,"[Element Au, Element Ce]",Ce1 Au1,crystal_system=<CrystalSystem.ortho: 'Orthorhombic'> symbol='Cmcm' number=63 point_group='mmm' symprec=0.1 version='1.16.2',ortho,10.498208058585577,106.63510789093729,66.31623809625412,18.164404742459144,0.3745050173141745,True,True