,Formula,Elements,Composition,Symmetry,Crystal system,Density [g/m$^3$],Volume [$\mathring{A}^3$],Bulk modulus[GPa],Shear modulus [GPa],Poisson,Metal,Experimental report
1649,Y(MnSi)2,"[Element Mn, Element Si, Element Y]",Y1 Mn2 Si2,crystal_system=<CrystalSystem.tet: 'Tetragonal'> symbol='I4/mmm' number=139 point_group='4/mmm' symprec=0.1 version='1.16.2',tet,5.355529127170515,79.05088497543082,127.57355747015865,76.37927145053405,0.2504488756581374,True,True
1650,ScNi2Sn,"[Element Ni, Element Sc, Element Sn]",Sc1 Ni2 Sn1,crystal_system=<CrystalSystem.cubic: 'Cubic'> symbol='Fm-3m' number=225 point_group='m-3m' symprec=0.1 version='1.16.2',cubic,7.7808645758014885,59.98035353311686,127.64505402738257,50.56584371233329,0.3250320886119024,True,True
1651,Mg2VN3,"[Element Mg, Element N, Element V]",Mg2 V1 N3,crystal_system=<CrystalSystem.ortho: 'Orthorhombic'> symbol='Cmc2_1' number=36 point_group='mm2' symprec=0.1 version='1.16.2',ortho,3.2568324891818197,144.36430077503098,127.67455838932335,54.226946488427934,0.3139730038015563,False,False
1652,Zn3Rh,"[Element Rh, Element Zn]",Zn3 Rh1,crystal_system=<CrystalSystem.tet: 'Tetragonal'> symbol='I4/mmm' number=139 point_group='4/mmm' symprec=0.1 version='1.16.2',tet,9.186436445445365,54.07115210447016,127.75346547093363,45.75862871901414,0.3400118897817355,True,False
1653,Si2CN4,"[Element C, Element N, Element Si]",Si2 C1 N4,crystal_system=<CrystalSystem.ortho: 'Orthorhombic'> symbol='Aea2' number=41 point_group='mm2' symprec=0.1 version='1.16.2',ortho,2.231820910163913,184.82940608226323,127.82955343771985,29.905068944246942,0.39148939560125967,False,True
1654,ScFe2,"[Element Fe, Element Sc]",Sc1 Fe2,crystal_system=<CrystalSystem.cubic: 'Cubic'> symbol='Fd-3m' number=227 point_group='m-3m' symprec=0.1 version='1.16.2',cubic,5.970254288411766,87.13754688944184,127.91368216724123,65.04229109029565,0.28260459232081253,True,True
1655,InPd2,"[Element In, Element Pd]",In1 Pd2,crystal_system=<CrystalSystem.ortho: 'Orthorhombic'> symbol='Pnma' number=62 point_group='mmm' symprec=0.1 version='1.16.2',ortho,10.917529028156194,199.34507454235225,128.0964688839773,33.38620367650178,0.38010000039175507,True,True
1656,YbO,"[Element O, Element Yb]",Yb1 O1,crystal_system=<CrystalSystem.cubic: 'Cubic'> symbol='Fm-3m' number=225 point_group='m-3m' symprec=0.1 version='1.16.2',cubic,12.315347034459736,25.48911597442409,128.1030646649619,88.95743471264005,0.21805290300444502,False,True
1657,CoAgO2,"[Element Ag, Element Co, Element O]",Co1 Ag1 O2,crystal_system=<CrystalSystem.hex_: 'Hexagonal'> symbol='P6_3/mmc' number=194 point_group='6/mmm' symprec=0.1 version='1.16.2',hex_,7.578299942146375,87.12125219781167,128.1095519211003,26.852256513660556,0.4020421824849683,False,True
1658,TiAlAu,"[Element Al, Element Au, Element Ti]",Ti1 Al1 Au1,crystal_system=<CrystalSystem.hex_: 'Hexagonal'> symbol='P6_3/mmc' number=194 point_group='6/mmm' symprec=0.1 version='1.16.2',hex_,9.214404849766419,97.9682600061412,128.1136804153652,57.630571782558995,0.30440857483705885,True,True
1659,TiNiSb,"[Element Ni, Element Sb, Element Ti]",Ti1 Ni1 Sb1,crystal_system=<CrystalSystem.cubic: 'Cubic'> symbol='F-43m' number=216 point_group='-43m' symprec=0.1 version='1.16.2',cubic,7.339567841128439,51.656303492038795,128.33464748766102,56.726851124566764,0.30737073819150557,True,True
1660,MgScRh2,"[Element Mg, Element Rh, Element Sc]",Mg1 Sc1 Rh2,crystal_system=<CrystalSystem.cubic: 'Cubic'> symbol='Fm-3m' number=225 point_group='m-3m' symprec=0.1 version='1.16.2',cubic,7.289934970286896,62.65730186374778,128.37318648054577,58.040782573936305,0.3035447543321804,True,False
1661,Mn2SnO4,"[Element Mn, Element O, Element Sn]",Mn2 Sn1 O4,crystal_system=<CrystalSystem.ortho: 'Orthorhombic'> symbol='Imma' number=74 point_group='mmm' symprec=0.1 version='1.16.2',ortho,5.512445555747758,176.27263347332203,128.47672504124085,48.45844423554435,0.33247390433826995,False,False
1662,YIr,"[Element Ir, Element Y]",Y1 Ir1,crystal_system=<CrystalSystem.cubic: 'Cubic'> symbol='Pm-3m' number=221 point_group='m-3m' symprec=0.1 version='1.16.2',cubic,11.707503028888897,39.87318848323501,128.49798092084654,49.839790032162114,0.32827040631951454,True,True
1663,TiZnCu2,"[Element Cu, Element Ti, Element Zn]",Ti1 Zn1 Cu2,crystal_system=<CrystalSystem.cubic: 'Cubic'> symbol='Fm-3m' number=225 point_group='m-3m' symprec=0.1 version='1.16.2',cubic,7.637160688020351,52.26293784633869,128.54364028234113,43.330768397254616,0.3484802857094565,True,False
1664,MnAu4,"[Element Au, Element Mn]",Mn1 Au4,crystal_system=<CrystalSystem.tet: 'Tetragonal'> symbol='I4/m' number=87 point_group='4/m' symprec=0.1 version='1.16.2',tet,16.398956012419386,85.34137779623893,128.5460805407128,30.92739053029883,0.3886343898421462,True,True
1665,Al3Pd2,"[Element Al, Element Pd]",Al3 Pd2,crystal_system=<CrystalSystem.trig: 'Trigonal'> symbol='P-3m1' number=164 point_group='-3m' symprec=0.1 version='1.16.2',trig,6.1383003841829415,79.47490366535837,128.601809085924,63.036442099425464,0.2893363574023223,True,True
1666,Zr(CuP)2,"[Element Cu, Element P, Element Zr]",Zr1 Cu2 P2,crystal_system=<CrystalSystem.trig: 'Trigonal'> symbol='P-3m1' number=164 point_group='-3m' symprec=0.1 version='1.16.2',trig,6.057738021045553,76.82546338718386,128.63442616284595,60.8826200194409,0.29559800268062747,True,True
1667,Al2Pt,"[Element Al, Element Pt]",Al2 Pt1,crystal_system=<CrystalSystem.cubic: 'Cubic'> symbol='Fm-3m' number=225 point_group='m-3m' symprec=0.1 version='1.16.2',cubic,8.06122201951167,51.30145282094564,128.64275225801057,38.58709731164553,0.3636547644027344,True,True
1668,Sc2PdRu,"[Element Pd, Element Ru, Element Sc]",Sc2 Pd1 Ru1,crystal_system=<CrystalSystem.cubic: 'Cubic'> symbol='Fm-3m' number=225 point_group='m-3m' symprec=0.1 version='1.16.2',cubic,7.265958203000877,67.9672705832709,128.72568628978973,53.652607052615416,0.31702255028609605,True,False
1669,CrNiAs,"[Element As, Element Cr, Element Ni]",Cr1 Ni1 As1,crystal_system=<CrystalSystem.hex_: 'Hexagonal'> symbol='P-62m' number=189 point_group='-6m2' symprec=0.1 version='1.16.2',hex_,7.610263782057109,121.49952678563528,128.86290580715954,60.65322996098203,0.29657577856025363,True,True
1670,Zn3Pt,"[Element Pt, Element Zn]",Zn3 Pt1,crystal_system=<CrystalSystem.tet: 'Tetragonal'> symbol='I4/mmm' number=139 point_group='4/mmm' symprec=0.1 version='1.16.2',tet,11.632654585549512,55.858892560731654,128.9223454485582,25.30887994477596,0.40787299520216175,True,False
1671,Sr2IrO4,"[Element Ir, Element O, Element Sr]",Sr2 Ir1 O4,crystal_system=<CrystalSystem.tet: 'Tetragonal'> symbol='I4_1/acd' number=142 point_group='4/mmm' symprec=0.1 version='1.16.2',tet,7.3927286720821055,387.64967607690886,128.97370430899082,47.34191011936517,0.33647499001666004,True,True
1672,LiAlPd2,"[Element Al, Element Li, Element Pd]",Li1 Al1 Pd2,crystal_system=<CrystalSystem.cubic: 'Cubic'> symbol='Fm-3m' number=225 point_group='m-3m' symprec=0.1 version='1.16.2',cubic,7.643851962328028,53.60632800558495,129.03341678341155,-92.58054335843809,0.9715162066948722,True,False
1673,YbSiPt2,"[Element Pt, Element Si, Element Yb]",Yb1 Si1 Pt2,crystal_system=<CrystalSystem.ortho: 'Orthorhombic'> symbol='Pnma' number=62 point_group='mmm' symprec=0.1 version='1.16.2',ortho,14.355346778183279,273.58892035094556,129.15869337826734,46.34483753492,0.339755868214485,True,True
1674,PtS,"[Element Pt, Element S]",Pt1 S1,crystal_system=<CrystalSystem.tet: 'Tetragonal'> symbol='P4_2/mmc' number=131 point_group='4/mmm' symprec=0.1 version='1.16.2',tet,10.100456437172683,74.68767194538908,129.18512296387715,33.919038546017276,0.3792843481806124,False,True
1675,Y(CoGe)2,"[Element Co, Element Ge, Element Y]",Y1 Co2 Ge2,crystal_system=<CrystalSystem.tet: 'Tetragonal'> symbol='I4/mmm' number=139 point_group='4/mmm' symprec=0.1 version='1.16.2',tet,7.528723954345573,77.64881559598297,129.3081330912261,68.16533008733325,0.2758160542789445,True,True
1676,CoO,"[Element Co, Element O]",Co1 O1,crystal_system=<CrystalSystem.cubic: 'Cubic'> symbol='F-43m' number=216 point_group='3m' symprec=0.1 version='1.16.2',cubic,5.451909946417111,45.6458388279094,129.36041643640235,31.458832075719748,0.3875238619447076,False,True
1677,Al4Cu9,"[Element Al, Element Cu]",Al4 Cu9,crystal_system=<CrystalSystem.cubic: 'Cubic'> symbol='P-43m' number=215 point_group='-43m' symprec=0.1 version='1.16.2',cubic,7.0556522867254206,639.9981685880424,129.36641869308116,69.74031006186166,0.2715128336886643,False,True
1678,AlCuAu2,"[Element Al, Element Au, Element Cu]",Al1 Cu1 Au2,crystal_system=<CrystalSystem.cubic: 'Cubic'> symbol='Fm-3m' number=225 point_group='m-3m' symprec=0.1 version='1.16.2',cubic,13.31686605655958,60.409549537333305,129.388163358653,27.843572661132555,0.39960444824817337,True,False
1679,Sb2Os,"[Element Os, Element Sb]",Sb2 Os1,crystal_system=<CrystalSystem.ortho: 'Orthorhombic'> symbol='Pnnm' number=58 point_group='mmm' symprec=0.1 version='1.16.2',ortho,11.074427020701247,130.07604254222485,129.4091123006362,87.15196400389046,0.22500286454049734,False,True
1680,Te2Os,"[Element Os, Element Te]",Te2 Os1,crystal_system=<CrystalSystem.cubic: 'Cubic'> symbol='Pa-3' number=205 point_group='m-3' symprec=0.1 version='1.16.2',cubic,11.082359216896739,266.96623055059365,129.41309591618017,88.23233150390402,0.22223215002080732,True,True
1681,Pr2CuO4,"[Element Cu, Element O, Element Pr]",Pr2 Cu1 O4,crystal_system=<CrystalSystem.tet: 'Tetragonal'> symbol='I4/mmm' number=139 point_group='4/mmm' symprec=0.1 version='1.16.2',tet,6.963609680025145,97.61552943730587,129.41577469395935,58.41185927755449,0.3038374846402194,True,True
1682,As3Ir,"[Element As, Element Ir]",As3 Ir1,crystal_system=<CrystalSystem.cubic: 'Cubic'> symbol='Im-3' number=204 point_group='m-3' symprec=0.1 version='1.16.2',cubic,8.96076155988533,309.087375814539,129.51183249896732,83.59470038534903,0.2344121364393297,False,True
1683,Hf2InC,"[Element C, Element Hf, Element In]",Hf2 In1 C1,crystal_system=<CrystalSystem.hex_: 'Hexagonal'> symbol='P6_3/mmc' number=194 point_group='6/mmm' symprec=0.1 version='1.16.2',hex_,11.46219906678623,140.1796012143788,129.53814944142667,91.96336337520825,0.21296002082370122,True,True
1684,ZnO,"[Element O, Element Zn]",Zn1 O1,crystal_system=<CrystalSystem.hex_: 'Hexagonal'> symbol='P6_3mc' number=186 point_group='6mm' symprec=0.1 version='1.16.2',hex_,5.70421780686615,47.397148259900405,129.6406481460126,41.16937780905255,0.35641638526689295,False,True
1685,La2Pd2O5,"[Element La, Element O, Element Pd]",La2 Pd2 O5,crystal_system=<CrystalSystem.tet: 'Tetragonal'> symbol='P4_2/m' number=84 point_group='4/m' symprec=0.1 version='1.16.2',tet,7.4993714431338345,252.7100317220284,129.65425505307434,48.98366041108493,0.33222721701416963,False,True
1686,ZrH2,"[Element H, Element Zr]",Zr1 H2,crystal_system=<CrystalSystem.tet: 'Tetragonal'> symbol='I4/mmm' number=139 point_group='4/mmm' symprec=0.1 version='1.16.2',tet,5.637322870620737,27.46489191030627,129.66399864194608,28.710456675695685,0.3968986541847627,True,True
1687,ScGaNi2,"[Element Ga, Element Ni, Element Sc]",Sc1 Ga1 Ni2,crystal_system=<CrystalSystem.cubic: 'Cubic'> symbol='Fm-3m' number=225 point_group='m-3m' symprec=0.1 version='1.16.2',cubic,7.172574561592001,53.72606133059318,129.7142965588709,49.08844583893979,0.3319776273602495,True,True
1688,Mg2Ni3P,"[Element Mg, Element Ni, Element P]",Mg2 Ni3 P1,crystal_system=<CrystalSystem.trig: 'Trigonal'> symbol='R-3m' number=166 point_group='-3m' symprec=0.1 version='1.16.2',trig,5.623179156104542,75.49821640696895,129.77402928862648,68.85320522196184,0.27458451079521223,True,True
1689,Be12V,"[Element Be, Element V]",Be12 V1,crystal_system=<CrystalSystem.tet: 'Tetragonal'> symbol='I4/mmm' number=139 point_group='4/mmm' symprec=0.1 version='1.16.2',tet,2.444798580369198,108.05442886711029,129.83018931574506,144.02600933287223,0.09506597695485791,True,True
1690,LiInPt2,"[Element In, Element Li, Element Pt]",Li1 In1 Pt2,crystal_system=<CrystalSystem.cubic: 'Cubic'> symbol='Fm-3m' number=225 point_group='m-3m' symprec=0.1 version='1.16.2',cubic,13.687029915297797,62.108053245154515,129.8466836575932,87.12711214674465,0.22582405852163492,True,False
1691,Sm2O3,"[Element O, Element Sm]",Sm2 O3,crystal_system=<CrystalSystem.cubic: 'Cubic'> symbol='Ia-3' number=206 point_group='m-3' symprec=0.1 version='1.16.2',cubic,7.079480081162786,654.3533566824561,130.01468082864017,54.67246601596816,0.3155933106683761,False,True
1692,MgPd3,"[Element Mg, Element Pd]",Mg1 Pd3,crystal_system=<CrystalSystem.tet: 'Tetragonal'> symbol='I4/mmm' number=139 point_group='4/mmm' symprec=0.1 version='1.16.2',tet,9.352979500060933,121.99387466052123,130.03199308528224,39.06535305177181,0.3634592048109888,True,True
1693,ZrSO,"[Element O, Element S, Element Zr]",Zr1 S1 O1,crystal_system=<CrystalSystem.cubic: 'Cubic'> symbol='P2_13' number=198 point_group='23' symprec=0.1 version='1.16.2',cubic,4.937205519946814,187.38845591074283,130.14857314559856,50.294913521640154,0.3288281936338399,False,True
1694,Gd2ReO5,"[Element Gd, Element O, Element Re]",Gd2 Re1 O5,crystal_system=<CrystalSystem.tet: 'Tetragonal'> symbol='P4/n' number=85 point_group='4/m' symprec=0.1 version='1.16.2',tet,9.175725419704895,420.3620461702521,130.162300935634,58.47919249236566,0.3046204609724979,True,True
1695,HfScCo2,"[Element Co, Element Hf, Element Sc]",Hf1 Sc1 Co2,crystal_system=<CrystalSystem.cubic: 'Cubic'> symbol='Fm-3m' number=225 point_group='m-3m' symprec=0.1 version='1.16.2',cubic,9.085563436063763,62.38054638774521,130.19166895988963,65.24043614929653,0.28530640916059063,True,False
1696,YSiRu,"[Element Ru, Element Si, Element Y]",Y1 Si1 Ru1,crystal_system=<CrystalSystem.ortho: 'Orthorhombic'> symbol='Pnma' number=62 point_group='mmm' symprec=0.1 version='1.16.2',ortho,6.757562753767398,214.3372714599875,130.33602479704228,52.19922430146505,0.3233358595781936,True,True
1697,Al3Ni2,"[Element Al, Element Ni]",Al3 Ni2,crystal_system=<CrystalSystem.trig: 'Trigonal'> symbol='P-3m1' number=164 point_group='-3m' symprec=0.1 version='1.16.2',trig,4.883766094782531,67.43506090961826,130.38294161497296,85.50456400310509,0.23092219838270986,True,True
1698,TiCu,"[Element Cu, Element Ti]",Ti1 Cu1,crystal_system=<CrystalSystem.tet: 'Tetragonal'> symbol='P4/nmm' number=129 point_group='4/mmm' symprec=0.1 version='1.16.2',tet,6.553558170638885,56.4596007878481,130.49045126425693,61.647708633213455,0.2959221524366454,True,True
1699,ScAlPd2,"[Element Al, Element Pd, Element Sc]",Sc1 Al1 Pd2,crystal_system=<CrystalSystem.cubic: 'Cubic'> symbol='Fm-3m' number=225 point_group='m-3m' symprec=0.1 version='1.16.2',cubic,7.388245462424432,64.0049230108925,130.5585933891656,41.063961803465766,0.3576605365047988,True,True
1700,ZrCo,"[Element Co, Element Zr]",Zr1 Co1,crystal_system=<CrystalSystem.cubic: 'Cubic'> symbol='Pm-3m' number=221 point_group='m-3m' symprec=0.1 version='1.16.2',cubic,7.554051238389816,33.00770415236456,130.636681572372,44.198380192811015,0.34797915724074924,True,True
1701,MgTlRh2,"[Element Mg, Element Rh, Element Tl]",Mg1 Tl1 Rh2,crystal_system=<CrystalSystem.cubic: 'Cubic'> symbol='Fm-3m' number=225 point_group='m-3m' symprec=0.1 version='1.16.2',cubic,11.150545745261125,64.70562773727781,130.64203411588608,56.05222064614686,0.3123160727793006,True,False
1702,ScGaPd2,"[Element Ga, Element Pd, Element Sc]",Sc1 Ga1 Pd2,crystal_system=<CrystalSystem.cubic: 'Cubic'> symbol='Fm-3m' number=225 point_group='m-3m' symprec=0.1 version='1.16.2',cubic,8.508962384791184,63.91589524457326,130.65695160352772,25.308638899804222,0.4090227079884867,True,True
1703,HfGaAu,"[Element Au, Element Ga, Element Hf]",Hf1 Ga1 Au1,crystal_system=<CrystalSystem.hex_: 'Hexagonal'> symbol='P-6m2' number=187 point_group='-6m2' symprec=0.1 version='1.16.2',hex_,13.66053759920372,108.22971798997735,130.76298949902187,61.66874340476572,0.29622966483020685,True,True
1704,Na4Ti5O12,"[Element Na, Element O, Element Ti]",Na4 Ti5 O12,crystal_system=<CrystalSystem.trig: 'Trigonal'> symbol='P-3' number=147 point_group='-3' symprec=0.1 version='1.16.2',trig,3.7211095405086905,233.5159158948291,130.85019404883892,60.079912586733116,0.30089748718055265,False,False
1705,Sr3V2O7,"[Element O, Element Sr, Element V]",Sr3 V2 O7,crystal_system=<CrystalSystem.tet: 'Tetragonal'> symbol='I4/mmm' number=139 point_group='4/mmm' symprec=0.1 version='1.16.2',tet,5.296841036193913,149.4557598679317,130.89488577646213,76.49034991473704,0.2554526070217423,False,True
1706,TiP2,"[Element P, Element Ti]",Ti1 P2,crystal_system=<CrystalSystem.ortho: 'Orthorhombic'> symbol='Pnma' number=62 point_group='mmm' symprec=0.1 version='1.16.2',ortho,4.271221078465307,170.7720615085595,130.99355279086075,90.91496884825483,0.21817795904540072,True,True
1707,Al5Rh2,"[Element Al, Element Rh]",Al5 Rh2,crystal_system=<CrystalSystem.hex_: 'Hexagonal'> symbol='P6_3/mmc' number=194 point_group='6/mmm' symprec=0.1 version='1.16.2',hex_,5.349804865062312,423.02604653285954,131.0492399601474,76.64103546339817,0.25529096452945876,True,True
1708,HfBe5,"[Element Be, Element Hf]",Hf1 Be5,crystal_system=<CrystalSystem.hex_: 'Hexagonal'> symbol='P6/mmm' number=191 point_group='6/mmm' symprec=0.1 version='1.16.2',hex_,6.101176010276861,60.84319134601322,131.2330658988945,119.689429296593,0.15029582950375575,True,True
1709,FeAgO2,"[Element Ag, Element Fe, Element O]",Fe1 Ag1 O2,crystal_system=<CrystalSystem.trig: 'Trigonal'> symbol='R-3m' number=166 point_group='-3m' symprec=0.1 version='1.16.2',trig,7.243436164392254,44.86647144072493,131.31395707255587,41.46576635700915,0.35714846463884997,False,True
1710,SrFeO3,"[Element Fe, Element O, Element Sr]",Sr1 Fe1 O3,crystal_system=<CrystalSystem.cubic: 'Cubic'> symbol='Pm-3m' number=221 point_group='m-3m' symprec=0.1 version='1.16.2',cubic,5.664240346569506,56.12970212480508,131.3827469419987,83.39260168761764,0.23805611709984692,True,True
1711,Hf2S,"[Element Hf, Element S]",Hf2 S1,crystal_system=<CrystalSystem.hex_: 'Hexagonal'> symbol='P6_3/mmc' number=194 point_group='6/mmm' symprec=0.1 version='1.16.2',hex_,11.182943515494184,115.53745581748092,131.4023301801204,73.9131569870325,0.26315965876247444,True,True
1712,YOF,"[Element F, Element O, Element Y]",Y1 O1 F1,crystal_system=<CrystalSystem.trig: 'Trigonal'> symbol='R-3m' number=166 point_group='-3m' symprec=0.1 version='1.16.2',trig,5.237683534296327,78.5640656927165,131.42314360697185,61.15881553126188,0.29856711999819024,False,True
1713,Pd3Pb,"[Element Pb, Element Pd]",Pd3 Pb1,crystal_system=<CrystalSystem.cubic: 'Cubic'> symbol='Pm-3m' number=221 point_group='m-3m' symprec=0.1 version='1.16.2',cubic,12.878659603523657,67.8803092802491,131.5057465388927,44.82236715365385,0.34696678902972755,True,True
1714,MgGaPd2,"[Element Ga, Element Mg, Element Pd]",Mg1 Ga1 Pd2,crystal_system=<CrystalSystem.cubic: 'Cubic'> symbol='Fm-3m' number=225 point_group='m-3m' symprec=0.1 version='1.16.2',cubic,8.556779225829011,59.55118027952161,131.55163801283152,33.93877732058751,0.3812204495603981,True,False
1715,Ca3(SiIr)4,"[Element Ca, Element Ir, Element Si]",Ca3 Si4 Ir4,crystal_system=<CrystalSystem.cubic: 'Cubic'> symbol='I-43m' number=217 point_group='-43m' symprec=0.1 version='1.16.2',cubic,8.102939213209178,205.2263803610051,131.5636431047189,51.457864031610455,0.32699315296008075,True,True
1716,CoAs2,"[Element As, Element Co]",Co1 As2,crystal_system=<CrystalSystem.mono: 'Monoclinic'> symbol='P2_1/c' number=14 point_group='2/m' symprec=0.1 version='1.16.2',mono,7.546049905466102,183.76838977981774,131.793125964378,88.99848806745715,0.224393409602975,False,True
1717,Sc2CoRu,"[Element Co, Element Ru, Element Sc]",Sc2 Co1 Ru1,crystal_system=<CrystalSystem.cubic: 'Cubic'> symbol='Fm-3m' number=225 point_group='m-3m' symprec=0.1 version='1.16.2',cubic,6.604517900566728,62.83481377860614,131.9220189774215,59.56239523155484,0.30378209966288694,True,False