,Formula,Elements,Composition,Symmetry,Crystal system,Density [g/m$^3$],Volume [$\mathring{A}^3$],Bulk modulus[GPa],Shear modulus [GPa],Poisson,Metal,Experimental report
616,Mg3Pt,"[Element Mg, Element Pt]",Mg3 Pt1,crystal_system=<CrystalSystem.hex_: 'Hexagonal'> symbol='P6_3cm' number=185 point_group='6mm' symprec=0.1 version='1.16.2',hex_,5.935119911778635,449.8876005115479,69.63773373624446,27.589161988748724,0.3250176343964597,False,True
617,PbF2,"[Element F, Element Pb]",Pb1 F2,crystal_system=<CrystalSystem.cubic: 'Cubic'> symbol='Fm-3m' number=225 point_group='m-3m' symprec=0.1 version='1.16.2',cubic,7.866148046956865,51.760896642451605,69.63861498908237,22.355705219956768,0.35500353241550353,False,True
618,SrZrS3,"[Element S, Element Sr, Element Zr]",Sr1 Zr1 S3,crystal_system=<CrystalSystem.ortho: 'Orthorhombic'> symbol='Pnma' number=62 point_group='mmm' symprec=0.1 version='1.16.2',ortho,3.8491136612747563,474.6162826351481,69.65157998455672,35.916790404396615,0.27998591535808515,False,True
619,LiHg2Pd,"[Element Hg, Element Li, Element Pd]",Li1 Hg2 Pd1,crystal_system=<CrystalSystem.cubic: 'Cubic'> symbol='Fm-3m' number=225 point_group='m-3m' symprec=0.1 version='1.16.2',cubic,12.074399107147007,70.76256336116055,69.72363564139133,14.061607738037193,0.4055137122879604,True,False
620,AlAs,"[Element Al, Element As]",Al1 As1,crystal_system=<CrystalSystem.cubic: 'Cubic'> symbol='F-43m' number=216 point_group='-43m' symprec=0.1 version='1.16.2',cubic,3.701817725841658,45.711095247398035,69.78136720778724,39.138452750772046,0.26373520759222624,False,True
621,LiF,"[Element F, Element Li]",Li1 F1,crystal_system=<CrystalSystem.cubic: 'Cubic'> symbol='Fm-3m' number=225 point_group='m-3m' symprec=0.1 version='1.16.2',cubic,2.5304317804069387,17.02215120415618,69.88150378551063,50.94344016882629,0.20675865938566476,False,True
622,Mg(ScGa)2,"[Element Ga, Element Mg, Element Sc]",Mg1 Sc2 Ga2,crystal_system=<CrystalSystem.tet: 'Tetragonal'> symbol='P4/mbm' number=127 point_group='4/mmm' symprec=0.1 version='1.16.2',tet,4.23704675052148,198.82576416898783,69.9044674701615,46.02240571019308,0.23005888744092587,True,True
623,MnCu2GeS4,"[Element Cu, Element Ge, Element Mn, Element S]",Mn1 Cu2 Ge1 S4,crystal_system=<CrystalSystem.ortho: 'Orthorhombic'> symbol='Pmn2_1' number=31 point_group='mm2' symprec=0.1 version='1.16.2',ortho,4.126748134059976,308.17015181966735,69.99569819690615,27.426116721513903,0.32671909935051185,False,True
624,Na2PtO2,"[Element Na, Element O, Element Pt]",Na2 Pt1 O2,crystal_system=<CrystalSystem.ortho: 'Orthorhombic'> symbol='Immm' number=71 point_group='mmm' symprec=0.1 version='1.16.2',ortho,6.72887297446447,67.38582858032369,70.16517557038841,27.31725349447887,0.32769689582584594,False,True
625,YMgPd,"[Element Mg, Element Pd, Element Y]",Y1 Mg1 Pd1,crystal_system=<CrystalSystem.hex_: 'Hexagonal'> symbol='P-62m' number=189 point_group='-6m2' symprec=0.1 version='1.16.2',hex_,5.617983040333087,194.75260286685102,70.18093758998994,20.360503012929897,0.36773358184206445,True,True
626,Li3PO4,"[Element Li, Element O, Element P]",Li3 P1 O4,crystal_system=<CrystalSystem.ortho: 'Orthorhombic'> symbol='Pmn2_1' number=31 point_group='mm2' symprec=0.1 version='1.16.2',ortho,2.535444656973804,151.67443017472192,70.24959741844924,42.61528240501691,0.2477032855063834,False,True
627,YCuSb2,"[Element Cu, Element Sb, Element Y]",Y1 Cu1 Sb2,crystal_system=<CrystalSystem.tet: 'Tetragonal'> symbol='P4/nmm' number=129 point_group='4/mmm' symprec=0.1 version='1.16.2',tet,7.200866835014635,182.6243260052007,70.25405166827076,30.974946619995272,0.3077977289472687,True,True
628,Sc2Al,"[Element Al, Element Sc]",Sc2 Al1,crystal_system=<CrystalSystem.hex_: 'Hexagonal'> symbol='P6_3/mmc' number=194 point_group='6/mmm' symprec=0.1 version='1.16.2',hex_,3.0393175923932017,127.72998498699012,70.28572074533245,44.465809080318664,0.23876728256524207,True,True
629,Zn(CuO2)2,"[Element Cu, Element O, Element Zn]",Zn1 Cu2 O4,crystal_system=<CrystalSystem.tet: 'Tetragonal'> symbol='I4_1/amd' number=141 point_group='4/mmm' symprec=0.1 version='1.16.2',tet,5.59259389576237,152.31785241940779,70.32407926473861,34.21498449576802,0.29068045934729525,False,False
630,SrNiGe2,"[Element Ge, Element Ni, Element Sr]",Sr1 Ni1 Ge2,crystal_system=<CrystalSystem.ortho: 'Orthorhombic'> symbol='Cmcm' number=63 point_group='mmm' symprec=0.1 version='1.16.2',ortho,6.136141584387712,157.8197717910174,70.35260774479892,37.17048721593608,0.2753852865422452,True,True
631,Ca2CoN2,"[Element Ca, Element Co, Element N]",Ca2 Co1 N2,crystal_system=<CrystalSystem.mono: 'Monoclinic'> symbol='C2/m' number=12 point_group='2/m' symprec=0.1 version='1.16.2',mono,3.630987300244522,152.84018597864633,70.46219437828213,37.44858238468469,0.274256691333211,True,False
632,Sr4ZrN4,"[Element N, Element Sr, Element Zr]",Sr4 Zr1 N4,crystal_system=<CrystalSystem.tri: 'Triclinic'> symbol='P-1' number=2 point_group='-1' symprec=0.1 version='1.16.2',tri,4.616729663044729,358.04627880463516,70.52682500569946,28.844120285360614,0.32004261929354116,False,False
633,CdSbAu,"[Element Au, Element Cd, Element Sb]",Cd1 Sb1 Au1,crystal_system=<CrystalSystem.cubic: 'Cubic'> symbol='F-43m' number=216 point_group='-43m' symprec=0.1 version='1.16.2',cubic,9.941091618437818,72.0163140912643,70.54013524686437,13.964487118254908,0.4071447985194245,True,True
634,Yb(ZnP)2,"[Element P, Element Yb, Element Zn]",Yb1 Zn2 P2,crystal_system=<CrystalSystem.trig: 'Trigonal'> symbol='P-3m1' number=164 point_group='-3m' symprec=0.1 version='1.16.2',trig,6.56733934718202,92.49322004971891,70.63361600965908,48.89864639964958,0.21875724007759706,False,True
635,NbSnS2,"[Element Nb, Element S, Element Sn]",Nb1 Sn1 S2,crystal_system=<CrystalSystem.hex_: 'Hexagonal'> symbol='P6_3/mmc' number=194 point_group='6/mmm' symprec=0.1 version='1.16.2',hex_,5.366069994187674,170.66032942525743,70.70954757312728,29.86047280417516,0.314906099766696,True,True
636,Sr(FeO2)2,"[Element Fe, Element O, Element Sr]",Sr1 Fe2 O4,crystal_system=<CrystalSystem.mono: 'Monoclinic'> symbol='P2_1/c' number=14 point_group='2/m' symprec=0.1 version='1.16.2',mono,4.379091191263277,798.764012414281,70.77616452778733,26.87510626678546,0.3314713514954096,False,True
637,BaPd2,"[Element Ba, Element Pd]",Ba1 Pd2,crystal_system=<CrystalSystem.cubic: 'Cubic'> symbol='Fd-3m' number=227 point_group='m-3m' symprec=0.1 version='1.16.2',cubic,8.874429847746226,131.0430063249174,70.84626504254277,25.28993553541052,0.34049486705261517,True,True
638,Mg5Rh2,"[Element Mg, Element Rh]",Mg5 Rh2,crystal_system=<CrystalSystem.hex_: 'Hexagonal'> symbol='P6_3/mmc' number=194 point_group='6/mmm' symprec=0.1 version='1.16.2',hex_,4.307698801761321,504.7281538647321,70.85887235741336,32.16177912787893,0.30288066996904295,True,True
639,Sr(CuGe)2,"[Element Cu, Element Ge, Element Sr]",Sr1 Cu2 Ge2,crystal_system=<CrystalSystem.tet: 'Tetragonal'> symbol='I4/mmm' number=139 point_group='4/mmm' symprec=0.1 version='1.16.2',tet,6.490937685986868,92.09467238516277,71.14116980562113,41.32349169973389,0.2566792257498242,True,True
640,Sr(CoAs)2,"[Element As, Element Co, Element Sr]",Sr1 Co2 As2,crystal_system=<CrystalSystem.tet: 'Tetragonal'> symbol='I4/mmm' number=139 point_group='4/mmm' symprec=0.1 version='1.16.2',tet,6.502145272077198,90.74522961641932,71.27508987560967,33.35843267626415,0.2975689798794227,True,True
641,Y(AlGe)2,"[Element Al, Element Ge, Element Y]",Y1 Al2 Ge2,crystal_system=<CrystalSystem.trig: 'Trigonal'> symbol='P-3m1' number=164 point_group='-3m' symprec=0.1 version='1.16.2',trig,4.532040711301738,105.57772559749245,71.32991253395403,34.31878315977478,0.2926846224134269,True,True
642,Sr2NbN3,"[Element N, Element Nb, Element Sr]",Sr2 Nb1 N3,crystal_system=<CrystalSystem.mono: 'Monoclinic'> symbol='C2/c' number=15 point_group='2/m' symprec=0.1 version='1.16.2',mono,4.796368323339664,429.5279448690778,71.33173551405088,37.50321577655086,0.2763213655728658,False,True
643,Ca6GaN5,"[Element Ca, Element Ga, Element N]",Ca6 Ga1 N5,crystal_system=<CrystalSystem.hex_: 'Hexagonal'> symbol='P6_3/mcm' number=193 point_group='6/mmm' symprec=0.1 version='1.16.2',hex_,3.017911027605057,418.420311634898,71.34600608099998,30.073729692047593,0.31520514715222037,False,True
644,Li2O2,"[Element Li, Element O]",Li2 O2,crystal_system=<CrystalSystem.hex_: 'Hexagonal'> symbol='P6_3/mmc' number=194 point_group='6/mmm' symprec=0.1 version='1.16.2',hex_,2.4144953737440713,63.107895451231315,71.34686363172023,50.25215740906144,0.21479264339547535,False,True
645,SrO2,"[Element O, Element Sr]",Sr1 O2,crystal_system=<CrystalSystem.tet: 'Tetragonal'> symbol='I4/mmm' number=139 point_group='4/mmm' symprec=0.1 version='1.16.2',tet,4.7311038520642335,41.98421694191871,71.39312610949834,38.18353283164781,0.2730439113094304,False,True
646,YZn3,"[Element Y, Element Zn]",Y1 Zn3,crystal_system=<CrystalSystem.ortho: 'Orthorhombic'> symbol='Pnma' number=62 point_group='mmm' symprec=0.1 version='1.16.2',ortho,6.5591788242453966,288.7399470469347,71.4120996564876,37.96786476381813,0.2741837553246873,True,True
647,Li5ReN4,"[Element Li, Element N, Element Re]",Li5 Re1 N4,crystal_system=<CrystalSystem.ortho: 'Orthorhombic'> symbol='Pmmn' number=59 point_group='mmm' symprec=0.1 version='1.16.2',ortho,4.2844252018851705,214.6694946407185,71.46054683288642,45.792556438479906,0.2359890586140031,False,True
648,Ti3NiS6,"[Element Ni, Element S, Element Ti]",Ti3 Ni1 S6,crystal_system=<CrystalSystem.trig: 'Trigonal'> symbol='R-3' number=148 point_group='-3' symprec=0.1 version='1.16.2',trig,3.826792604623007,171.2632308282999,71.54015194836364,46.37804117357868,0.23345799858996205,True,True
649,YAl3,"[Element Al, Element Y]",Y1 Al3,crystal_system=<CrystalSystem.hex_: 'Hexagonal'> symbol='P6_3/mmc' number=194 point_group='6/mmm' symprec=0.1 version='1.16.2',hex_,3.610804964601175,156.22186005953927,71.55681042867005,39.669865604512694,0.26604258493736826,True,True
650,LiCuO,"[Element Cu, Element Li, Element O]",Li1 Cu1 O1,crystal_system=<CrystalSystem.tet: 'Tetragonal'> symbol='I4/mmm' number=139 point_group='4/mmm' symprec=0.1 version='1.16.2',tet,4.2894703998712185,133.92240303969075,71.56704809411241,32.40284259442164,0.3033044124218301,False,True
651,LiMg2Pt,"[Element Li, Element Mg, Element Pt]",Li1 Mg2 Pt1,crystal_system=<CrystalSystem.cubic: 'Cubic'> symbol='Fm-3m' number=225 point_group='m-3m' symprec=0.1 version='1.16.2',cubic,6.4287466281802415,64.73877927198694,71.65218378844096,30.851629772039324,0.3117335051911951,True,False
652,SrNi2Ge,"[Element Ge, Element Ni, Element Sr]",Sr1 Ni2 Ge1,crystal_system=<CrystalSystem.hex_: 'Hexagonal'> symbol='P6_3/mmc' number=194 point_group='6/mmm' symprec=0.1 version='1.16.2',hex_,6.052842096231683,152.33946327577536,71.65984887614675,31.7216183971002,0.30712524162289956,True,True
653,Sr(NiGe)2,"[Element Ge, Element Ni, Element Sr]",Sr1 Ni2 Ge2,crystal_system=<CrystalSystem.tet: 'Tetragonal'> symbol='I4/mmm' number=139 point_group='4/mmm' symprec=0.1 version='1.16.2',tet,6.5234951054892,89.16461291200456,71.7018644777078,35.65354054801679,0.28672636975190907,True,True
654,CaPHO4,"[Element Ca, Element H, Element O, Element P]",Ca1 P1 H1 O4,crystal_system=<CrystalSystem.tri: 'Triclinic'> symbol='P1' number=1 point_group='1' symprec=0.1 version='1.16.2',tri,2.947113876940955,306.6436855866642,71.77248861641932,38.05234104319598,0.2747225201579695,False,True
655,Sc2TlAg,"[Element Ag, Element Sc, Element Tl]",Sc2 Tl1 Ag1,crystal_system=<CrystalSystem.cubic: 'Cubic'> symbol='Fm-3m' number=225 point_group='m-3m' symprec=0.1 version='1.16.2',cubic,7.759728606079974,86.06073028539507,71.80435831986983,31.06371573225381,0.3109535041105234,True,False
656,Y2MgGe2,"[Element Ge, Element Mg, Element Y]",Y2 Mg1 Ge2,crystal_system=<CrystalSystem.tet: 'Tetragonal'> symbol='P4/mbm' number=127 point_group='4/mmm' symprec=0.1 version='1.16.2',tet,5.164150887514923,223.4116719372302,71.8107263807011,54.92361514236653,0.195270364256135,True,True
657,Li2InPt,"[Element In, Element Li, Element Pt]",Li2 In1 Pt1,crystal_system=<CrystalSystem.cubic: 'Cubic'> symbol='F-43m' number=216 point_group='-43m' symprec=0.1 version='1.16.2',cubic,8.478244747222652,63.415954265314475,71.88051368069677,17.244910750334782,0.38892713197177264,True,True
658,Hf2In5,"[Element Hf, Element In]",Hf2 In5,crystal_system=<CrystalSystem.tet: 'Tetragonal'> symbol='P4/mbm' number=127 point_group='4/mmm' symprec=0.1 version='1.16.2',tet,9.517648726571823,324.88656666280355,71.88575638460108,45.295384047474116,0.23963446917397122,True,True
659,SnAu,"[Element Au, Element Sn]",Sn1 Au1,crystal_system=<CrystalSystem.hex_: 'Hexagonal'> symbol='P6_3/mmc' number=194 point_group='6/mmm' symprec=0.1 version='1.16.2',hex_,11.378646851068313,92.13631147811485,71.91902795720907,19.544926566369238,0.3754052725899714,True,True
660,Sc6FeSb2,"[Element Fe, Element Sb, Element Sc]",Sc6 Fe1 Sb2,crystal_system=<CrystalSystem.hex_: 'Hexagonal'> symbol='P-62m' number=189 point_group='-6m2' symprec=0.1 version='1.16.2',hex_,4.70815869651839,200.71829084166646,72.00891482446922,45.358551821022786,0.23970292630808582,True,True
661,Sc5Sn3,"[Element Sc, Element Sn]",Sc5 Sn3,crystal_system=<CrystalSystem.hex_: 'Hexagonal'> symbol='P6_3/mcm' number=193 point_group='6/mmm' symprec=0.1 version='1.16.2',hex_,5.130054601694165,376.06734954550257,72.0125358340849,50.77803528959471,0.214533030607159,True,True
662,CaInPt,"[Element Ca, Element In, Element Pt]",Ca1 In1 Pt1,crystal_system=<CrystalSystem.ortho: 'Orthorhombic'> symbol='Pnma' number=62 point_group='mmm' symprec=0.1 version='1.16.2',ortho,8.615523746382392,269.81782170709783,72.03066992992198,26.502185190767527,0.3361326090702986,True,True
663,LiFe2F6,"[Element F, Element Fe, Element Li]",Li1 Fe2 F6,crystal_system=<CrystalSystem.tet: 'Tetragonal'> symbol='P4_2nm' number=102 point_group='4mm' symprec=0.1 version='1.16.2',tet,3.62660024826429,213.0242805197013,72.0901769136145,33.248881548464944,0.30012247598246516,False,True
664,SrAsPt,"[Element As, Element Pt, Element Sr]",Sr1 As1 Pt1,crystal_system=<CrystalSystem.hex_: 'Hexagonal'> symbol='P6_3/mmc' number=194 point_group='6/mmm' symprec=0.1 version='1.16.2',hex_,8.347743008981096,142.2782851310486,72.1073191880862,29.95380081337239,0.3175593833674716,True,True
665,Sn4Ir,"[Element Ir, Element Sn]",Sn4 Ir1,crystal_system=<CrystalSystem.tet: 'Tetragonal'> symbol='I4_1/acd' number=142 point_group='4/mmm' symprec=0.1 version='1.16.2',tet,9.541995105021703,464.3365233193448,72.16243472445748,35.8233808048356,0.2870281585106296,True,True
666,ErF3,"[Element Er, Element F]",Er1 F3,crystal_system=<CrystalSystem.ortho: 'Orthorhombic'> symbol='Pnma' number=62 point_group='mmm' symprec=0.1 version='1.16.2',ortho,8.114180722633286,183.5713985771102,72.2411619658872,44.1643357715273,0.24607283991472448,False,True
667,ZrIn3,"[Element In, Element Zr]",Zr1 In3,crystal_system=<CrystalSystem.tet: 'Tetragonal'> symbol='I4/mmm' number=139 point_group='4/mmm' symprec=0.1 version='1.16.2',tet,8.066422082166923,89.68788542042273,72.33678150802388,48.30341576264021,0.22690778056267588,True,True
668,Ti2Bi,"[Element Bi, Element Ti]",Ti2 Bi1,crystal_system=<CrystalSystem.tet: 'Tetragonal'> symbol='I4/mmm' number=139 point_group='4/mmm' symprec=0.1 version='1.16.2',tet,8.208273250933882,123.2878462709586,72.34902042131746,22.41790607687195,0.3595750372644376,True,True
669,ZrVF6,"[Element F, Element V, Element Zr]",Zr1 V1 F6,crystal_system=<CrystalSystem.cubic: 'Cubic'> symbol='Fm-3m' number=225 point_group='m-3m' symprec=0.1 version='1.16.2',cubic,3.1543154260664954,134.8491997526268,72.3862476561931,32.03775865274794,0.3071536411367943,False,True
670,In2Ni3S2,"[Element In, Element Ni, Element S]",In2 Ni3 S2,crystal_system=<CrystalSystem.trig: 'Trigonal'> symbol='R-3m' number=166 point_group='-3m' symprec=0.1 version='1.16.2',trig,6.931817478897997,112.55316124070691,72.40304357996723,33.07386441603153,0.3017811933521956,True,True
671,ZnCN2,"[Element C, Element N, Element Zn]",Zn1 C1 N2,crystal_system=<CrystalSystem.tet: 'Tetragonal'> symbol='I-42d' number=122 point_group='-42m' symprec=0.1 version='1.16.2',tet,3.3493038586395616,209.0891586454717,72.54610228159416,23.805193279052865,0.35210705651523055,False,True
672,GdTe,"[Element Gd, Element Te]",Gd1 Te1,crystal_system=<CrystalSystem.cubic: 'Cubic'> symbol='Fm-3m' number=225 point_group='m-3m' symprec=0.1 version='1.16.2',cubic,7.840211740453895,60.33058401731716,72.62554681574397,26.13337359453819,0.33935060802423894,True,True
673,ScGa3,"[Element Ga, Element Sc]",Sc1 Ga3,crystal_system=<CrystalSystem.cubic: 'Cubic'> symbol='Pm-3m' number=221 point_group='m-3m' symprec=0.1 version='1.16.2',cubic,6.205188239591232,68.00508346868223,72.66926483174107,34.30850708410081,0.29603870101126945,True,True
674,Mg2AgAu,"[Element Ag, Element Au, Element Mg]",Mg2 Ag1 Au1,crystal_system=<CrystalSystem.cubic: 'Cubic'> symbol='Fm-3m' number=225 point_group='m-3m' symprec=0.1 version='1.16.2',cubic,8.356768414805842,70.2315557494779,72.68642110557312,31.165138700841105,0.3124272435892221,True,False
675,Mg2Pt,"[Element Mg, Element Pt]",Mg2 Pt1,crystal_system=<CrystalSystem.tet: 'Tetragonal'> symbol='I4/mcm' number=140 point_group='4/mmm' symprec=0.1 version='1.16.2',tet,7.232374613179499,111.90333159972256,72.72659559736245,40.14206899632856,0.2669066625790592,True,True
676,Pr2S3,"[Element Pr, Element S]",Pr2 S3,crystal_system=<CrystalSystem.ortho: 'Orthorhombic'> symbol='Pnma' number=62 point_group='mmm' symprec=0.1 version='1.16.2',ortho,5.137654200236373,488.706204242634,72.72686842496415,34.50769393831946,0.29515655822352055,False,True
677,Sc2Sb,"[Element Sb, Element Sc]",Sc2 Sb1,crystal_system=<CrystalSystem.tet: 'Tetragonal'> symbol='P4/nmm' number=129 point_group='4/mmm' symprec=0.1 version='1.16.2',tet,5.0171186036214594,140.11601511543589,72.74002500330513,40.39169427872094,0.26572009238117966,True,True
678,Li3BO3,"[Element B, Element Li, Element O]",Li3 B1 O3,crystal_system=<CrystalSystem.mono: 'Monoclinic'> symbol='P2_1/c' number=14 point_group='2/m' symprec=0.1 version='1.16.2',mono,2.219457518906585,238.31477364693828,72.85338978935926,41.35101606617381,0.26135492593122256,False,True
679,Sc6NiTe2,"[Element Ni, Element Sc, Element Te]",Sc6 Ni1 Te2,crystal_system=<CrystalSystem.hex_: 'Hexagonal'> symbol='P-62m' number=189 point_group='-6m2' symprec=0.1 version='1.16.2',hex_,4.946239185094232,195.93442736700726,72.90435212364164,30.074486726777693,0.31867367823777865,True,True
680,Cu3AsS4,"[Element As, Element Cu, Element S]",Cu3 As1 S4,crystal_system=<CrystalSystem.ortho: 'Orthorhombic'> symbol='Pmn2_1' number=31 point_group='mm2' symprec=0.1 version='1.16.2',ortho,4.534794269182399,288.41565556211646,72.98846961114515,33.001279996302074,0.3035378397661794,True,True
681,Sr4TiN4,"[Element N, Element Sr, Element Ti]",Sr4 Ti1 N4,crystal_system=<CrystalSystem.tri: 'Triclinic'> symbol='P-1' number=2 point_group='-1' symprec=0.1 version='1.16.2',tri,4.5362308389013215,332.657429718562,73.01435996471457,33.01996756062901,0.3035017356130688,False,False
682,ZnCu2GeS4,"[Element Cu, Element Ge, Element S, Element Zn]",Zn1 Cu2 Ge1 S4,crystal_system=<CrystalSystem.tet: 'Tetragonal'> symbol='I-42m' number=121 point_group='-42m' symprec=0.1 version='1.16.2',tet,4.443875003832139,147.001823583286,73.11904890200029,33.85591528193128,0.29944212781046337,False,True
683,YGa2,"[Element Ga, Element Y]",Y1 Ga2,crystal_system=<CrystalSystem.hex_: 'Hexagonal'> symbol='P6/mmm' number=191 point_group='6/mmm' symprec=0.1 version='1.16.2',hex_,6.059488004174083,62.57742693676097,73.35054528493717,54.6065373102072,0.20177546503923563,True,True
684,CeNi,"[Element Ce, Element Ni]",Ce1 Ni1,crystal_system=<CrystalSystem.ortho: 'Orthorhombic'> symbol='Cmcm' number=63 point_group='mmm' symprec=0.1 version='1.16.2',ortho,8.090124322052787,81.61327622800701,73.39753155399404,14.264003991634688,0.4087421462636579,True,True