,Formula,Elements,Composition,Symmetry,Crystal system,Density [g/m$^3$],Volume [$\mathring{A}^3$],Bulk modulus[GPa],Shear modulus [GPa],Poisson,Metal,Experimental report
1786,ZrCdPd2,"[Element Cd, Element Pd, Element Zr]",Zr1 Cd1 Pd2,crystal_system=<CrystalSystem.cubic: 'Cubic'> symbol='Fm-3m' number=225 point_group='m-3m' symprec=0.1 version='1.16.2',cubic,9.790446229132465,70.63753700054951,136.42874221391628,33.960702839114276,0.3850729675254958,True,False
1787,TiSnPt,"[Element Pt, Element Sn, Element Ti]",Ti1 Sn1 Pt1,crystal_system=<CrystalSystem.cubic: 'Cubic'> symbol='F-43m' number=216 point_group='-43m' symprec=0.1 version='1.16.2',cubic,10.115303531541375,59.3706572910037,136.52104495651975,56.079463711192716,0.3193481528039341,False,True
1788,InPd2Au,"[Element Au, Element In, Element Pd]",In1 Pd2 Au1,crystal_system=<CrystalSystem.cubic: 'Cubic'> symbol='Fm-3m' number=225 point_group='m-3m' symprec=0.1 version='1.16.2',cubic,12.975494778600613,67.13883416294978,136.61390148649906,-15.979434119748856,0.5608566826138165,True,False
1789,Be22Re,"[Element Be, Element Re]",Be22 Re1,crystal_system=<CrystalSystem.cubic: 'Cubic'> symbol='Fd-3m' number=227 point_group='m-3m' symprec=0.1 version='1.16.2',cubic,3.3569427923866377,380.36737815200695,136.65332811040162,152.39475576044845,0.09350901247241836,True,True
1790,Be2Cu,"[Element Be, Element Cu]",Be2 Cu1,crystal_system=<CrystalSystem.cubic: 'Cubic'> symbol='Fd-3m' number=227 point_group='m-3m' symprec=0.1 version='1.16.2',cubic,5.1093482422853205,53.02076494915034,136.68569015028243,125.41294857559518,0.14868355616730972,True,True
1791,CoSb,"[Element Co, Element Sb]",Co1 Sb1,crystal_system=<CrystalSystem.hex_: 'Hexagonal'> symbol='P6_3/mmc' number=194 point_group='6/mmm' symprec=0.1 version='1.16.2',hex_,9.092036928225594,66.00239566445079,136.6993563523498,68.76439798917576,0.2846007902435862,True,True
1792,BeAu2,"[Element Au, Element Be]",Be1 Au2,crystal_system=<CrystalSystem.tet: 'Tetragonal'> symbol='I4/mmm' number=139 point_group='4/mmm' symprec=0.1 version='1.16.2',tet,15.554127698982748,43.01793443597601,136.78824623387885,30.340936953343846,0.3967306119614268,True,True
1793,CdPt,"[Element Cd, Element Pt]",Cd1 Pt1,crystal_system=<CrystalSystem.tet: 'Tetragonal'> symbol='P4/mmm' number=123 point_group='4/mmm' symprec=0.1 version='1.16.2',tet,14.895346683553619,68.55932542314619,136.7971013683658,48.059464061368814,0.3427547708549652,True,True
1794,Hf2Pd,"[Element Hf, Element Pd]",Hf2 Pd1,crystal_system=<CrystalSystem.tet: 'Tetragonal'> symbol='I4/mmm' number=139 point_group='4/mmm' symprec=0.1 version='1.16.2',tet,13.394431575498581,57.448783781912525,136.80169379923518,55.15689092708273,0.32228931633422636,True,True
1795,Ti2AlC,"[Element Al, Element C, Element Ti]",Ti2 Al1 C1,crystal_system=<CrystalSystem.hex_: 'Hexagonal'> symbol='P6_3/mmc' number=194 point_group='6/mmm' symprec=0.1 version='1.16.2',hex_,4.038374281779553,110.79616047514499,136.91013790937455,112.34203847362647,0.17783993020254893,True,True
1796,TaBe12,"[Element Be, Element Ta]",Ta1 Be12,crystal_system=<CrystalSystem.tet: 'Tetragonal'> symbol='I4/mmm' number=139 point_group='4/mmm' symprec=0.1 version='1.16.2',tet,4.273601358660808,112.32961310752474,136.97260811337975,142.66653291431635,0.11342874565165993,True,True
1797,Cd2PtRh,"[Element Cd, Element Pt, Element Rh]",Cd2 Pt1 Rh1,crystal_system=<CrystalSystem.cubic: 'Cubic'> symbol='Fm-3m' number=225 point_group='m-3m' symprec=0.1 version='1.16.2',cubic,12.935122026673312,67.11563435022488,136.9839360421657,42.90600007547326,0.3581956750547528,True,False
1798,CdPd3,"[Element Cd, Element Pd]",Cd1 Pd3,crystal_system=<CrystalSystem.tet: 'Tetragonal'> symbol='I4/mmm' number=139 point_group='4/mmm' symprec=0.1 version='1.16.2',tet,11.214352032531394,63.91867825612436,137.02324675694263,43.360364467032625,0.35687447635524105,True,False
1799,Ti2InN,"[Element In, Element N, Element Ti]",Ti2 In1 N1,crystal_system=<CrystalSystem.hex_: 'Hexagonal'> symbol='P6_3/mmc' number=194 point_group='6/mmm' symprec=0.1 version='1.16.2',hex_,6.496355830303249,114.79928250097194,137.09569481702528,84.23979408153235,0.24499931972109276,True,True
1800,HfZnAu2,"[Element Au, Element Hf, Element Zn]",Hf1 Zn1 Au2,crystal_system=<CrystalSystem.cubic: 'Cubic'> symbol='Fm-3m' number=225 point_group='m-3m' symprec=0.1 version='1.16.2',cubic,15.230417531246738,69.54144106089403,137.18965000205867,17.057170824736993,0.4403075197855272,True,False
1801,MnP4,"[Element Mn, Element P]",Mn1 P4,crystal_system=<CrystalSystem.tri: 'Triclinic'> symbol='P-1' number=2 point_group='-1' symprec=0.1 version='1.16.2',tri,4.1140442471047685,433.09111836081127,137.20388626889257,114.72771414019354,0.17304066529018486,False,True
1802,Mn2ZnO4,"[Element Mn, Element O, Element Zn]",Mn2 Zn1 O4,crystal_system=<CrystalSystem.tet: 'Tetragonal'> symbol='I4_1/amd' number=141 point_group='4/mmm' symprec=0.1 version='1.16.2',tet,5.25115930992759,151.3335365601834,137.33961813730136,60.84272136969509,0.3069961977695248,False,True
1803,Sc2Ti2O7,"[Element O, Element Sc, Element Ti]",Sc2 Ti2 O7,crystal_system=<CrystalSystem.mono: 'Monoclinic'> symbol='C2/m' number=12 point_group='2/m' symprec=0.1 version='1.16.2',mono,3.409876902595079,144.9452747464648,137.41996577949863,48.34453018920511,0.34256166256793863,False,False
1804,As2Pt,"[Element As, Element Pt]",As2 Pt1,crystal_system=<CrystalSystem.cubic: 'Cubic'> symbol='Pa-3' number=205 point_group='m-3' symprec=0.1 version='1.16.2',cubic,10.562598941863977,216.90309132645186,137.49234112199522,82.7063379115407,0.24946753754558873,False,True
1805,GdF3,"[Element F, Element Gd]",Gd1 F3,crystal_system=<CrystalSystem.cubic: 'Cubic'> symbol='Fm-3m' number=225 point_group='m-3m' symprec=0.1 version='1.16.2',cubic,8.110705929293834,43.863326259651494,137.53276259514098,1.5640991901528771,0.49433519590621905,False,False
1806,Be5Au,"[Element Au, Element Be]",Be5 Au1,crystal_system=<CrystalSystem.cubic: 'Cubic'> symbol='F-43m' number=216 point_group='-43m' symprec=0.1 version='1.16.2',cubic,7.090203482187636,56.68329337513013,137.57807067270278,119.84967965789625,0.1624484474716154,True,True
1807,SrSnO3,"[Element O, Element Sn, Element Sr]",Sr1 Sn1 O3,crystal_system=<CrystalSystem.ortho: 'Orthorhombic'> symbol='Pnma' number=62 point_group='mmm' symprec=0.1 version='1.16.2',ortho,6.345516909051056,266.2174999396318,137.602706627805,74.38202945553661,0.27098665821816426,False,True
1808,ZrTiAs,"[Element As, Element Ti, Element Zr]",Zr1 Ti1 As1,crystal_system=<CrystalSystem.tet: 'Tetragonal'> symbol='I4/mmm' number=139 point_group='4/mmm' symprec=0.1 version='1.16.2',tet,6.677888955665629,106.43372041792705,137.63969837161915,70.78910905206666,0.280479920201112,True,True
1809,ScRh,"[Element Rh, Element Sc]",Sc1 Rh1,crystal_system=<CrystalSystem.cubic: 'Cubic'> symbol='Pm-3m' number=221 point_group='m-3m' symprec=0.1 version='1.16.2',cubic,7.375454735967252,33.290103438813674,137.71392428899287,60.65640342154291,0.30796759108479793,True,True
1810,Zr3(Cu2Si)2,"[Element Cu, Element Si, Element Zr]",Zr3 Cu4 Si2,crystal_system=<CrystalSystem.hex_: 'Hexagonal'> symbol='P-62m' number=189 point_group='-6m2' symprec=0.1 version='1.16.2',hex_,6.994599809695952,138.649769226948,137.71908943654068,75.13535242773185,0.26918957228678,True,True
1811,ScCuO2,"[Element Cu, Element O, Element Sc]",Sc1 Cu1 O2,crystal_system=<CrystalSystem.hex_: 'Hexagonal'> symbol='P6_3/mmc' number=194 point_group='6/mmm' symprec=0.1 version='1.16.2',hex_,4.5624290881974545,102.27311664510334,137.73471930990266,46.246363029917596,0.3490162892840157,False,True
1812,Y2O3,"[Element O, Element Y]",Y2 O3,crystal_system=<CrystalSystem.cubic: 'Cubic'> symbol='Ia-3' number=206 point_group='m-3' symprec=0.1 version='1.16.2',cubic,5.026122832858722,596.8276909170065,137.73488203686657,61.49564364951085,0.3056806210906645,False,True
1813,Hf2SnC,"[Element C, Element Hf, Element Sn]",Hf2 Sn1 C1,crystal_system=<CrystalSystem.hex_: 'Hexagonal'> symbol='P6_3/mmc' number=194 point_group='6/mmm' symprec=0.1 version='1.16.2',hex_,11.721883776412252,138.17677782948266,137.7770761203202,86.00781678240051,0.241635014468854,True,True
1814,Be4B,"[Element B, Element Be]",Be4 B1,crystal_system=<CrystalSystem.tet: 'Tetragonal'> symbol='P4/nmm' number=129 point_group='4/mmm' symprec=0.1 version='1.16.2',tet,1.9709409129725808,78.95965676301567,137.78563138230004,134.1400013496469,0.13249106309181008,True,True
1815,Zn3Ru,"[Element Ru, Element Zn]",Zn3 Ru1,crystal_system=<CrystalSystem.tet: 'Tetragonal'> symbol='I4/mmm' number=139 point_group='4/mmm' symprec=0.1 version='1.16.2',tet,9.142065344478814,108.0003837822326,137.96917577023936,57.537397343263336,0.31693281335409507,True,True
1816,ZrCoSn,"[Element Co, Element Sn, Element Zr]",Zr1 Co1 Sn1,crystal_system=<CrystalSystem.hex_: 'Hexagonal'> symbol='P-62m' number=189 point_group='-6m2' symprec=0.1 version='1.16.2',hex_,8.469011775372186,158.1522707252486,138.0208988854621,65.89793376047754,0.29405206515612736,True,True
1817,Sc2BC2,"[Element B, Element C, Element Sc]",Sc2 B1 C2,crystal_system=<CrystalSystem.tet: 'Tetragonal'> symbol='I4/mmm' number=139 point_group='4/mmm' symprec=0.1 version='1.16.2',tet,3.4802664453798378,59.51919502016566,138.05020192146827,70.6901275729624,0.28129892133947204,True,True
1818,RuSe2,"[Element Ru, Element Se]",Ru1 Se2,crystal_system=<CrystalSystem.cubic: 'Cubic'> symbol='Pa-3' number=205 point_group='m-3' symprec=0.1 version='1.16.2',cubic,8.078168322945961,212.95075599608094,138.11240534517583,92.58306312901497,0.2260425348885188,False,True
1819,LiSiPd2,"[Element Li, Element Pd, Element Si]",Li1 Si1 Pd2,crystal_system=<CrystalSystem.cubic: 'Cubic'> symbol='Fm-3m' number=225 point_group='m-3m' symprec=0.1 version='1.16.2',cubic,7.985017168075295,51.54553808562679,138.1659722761341,36.573513179567996,0.3783778662985092,True,False
1820,LiZrRh2,"[Element Li, Element Rh, Element Zr]",Li1 Zr1 Rh2,crystal_system=<CrystalSystem.cubic: 'Cubic'> symbol='Fm-3m' number=225 point_group='m-3m' symprec=0.1 version='1.16.2',cubic,8.354894723721841,60.415366081829596,138.22369856400144,46.21458199704607,0.3495898736902407,True,False
1821,ZrBeSi,"[Element Be, Element Si, Element Zr]",Zr1 Be1 Si1,crystal_system=<CrystalSystem.hex_: 'Hexagonal'> symbol='P6_3/mmc' number=194 point_group='6/mmm' symprec=0.1 version='1.16.2',hex_,4.883936398045159,87.25878008489649,138.2365385092137,116.1418662339598,0.17182384275763102,True,True
1822,TlCdRh2,"[Element Cd, Element Rh, Element Tl]",Tl1 Cd1 Rh2,crystal_system=<CrystalSystem.cubic: 'Cubic'> symbol='Fm-3m' number=225 point_group='m-3m' symprec=0.1 version='1.16.2',cubic,12.81456935680114,67.72030279750585,138.24133483031449,51.26052604160023,0.33499282910845385,True,False
1823,ZrAlNi,"[Element Al, Element Ni, Element Zr]",Zr1 Al1 Ni1,crystal_system=<CrystalSystem.hex_: 'Hexagonal'> symbol='P-62m' number=189 point_group='-6m2' symprec=0.1 version='1.16.2',hex_,6.184663587639631,142.48839612187365,138.3532045026832,71.02930723457376,0.28081384638619644,True,True
1824,Sc2OsPd,"[Element Os, Element Pd, Element Sc]",Sc2 Os1 Pd1,crystal_system=<CrystalSystem.cubic: 'Cubic'> symbol='Fm-3m' number=225 point_group='m-3m' symprec=0.1 version='1.16.2',cubic,9.420578531471282,68.1381730711928,138.40791068461408,60.70293970430481,0.30867975055886643,True,False
1825,U(SiRu)2,"[Element Ru, Element Si, Element U]",U1 Si2 Ru2,crystal_system=<CrystalSystem.tet: 'Tetragonal'> symbol='I4/mmm' number=139 point_group='4/mmm' symprec=0.1 version='1.16.2',tet,9.949546023953975,82.83712733057865,138.47218130082308,75.49472317148306,0.2693227017741977,True,True
1826,ZrNi,"[Element Ni, Element Zr]",Zr1 Ni1,crystal_system=<CrystalSystem.ortho: 'Orthorhombic'> symbol='Cmcm' number=63 point_group='mmm' symprec=0.1 version='1.16.2',ortho,7.528268777363949,66.13570976945574,138.49221614083243,34.994268173416074,0.38347438130570694,True,True
1827,ScCdRh2,"[Element Cd, Element Rh, Element Sc]",Sc1 Cd1 Rh2,crystal_system=<CrystalSystem.cubic: 'Cubic'> symbol='Fm-3m' number=225 point_group='m-3m' symprec=0.1 version='1.16.2',cubic,9.184089331997871,65.6647697122331,138.52254833694644,49.06195905681043,0.3416094498909705,True,False
1828,TiP,"[Element P, Element Ti]",Ti1 P1,crystal_system=<CrystalSystem.hex_: 'Hexagonal'> symbol='P6_3/mmc' number=194 point_group='6/mmm' symprec=0.1 version='1.16.2',hex_,4.227605369285763,123.86980704741684,138.5426345961132,91.3030594051558,0.22983581779071918,True,True
1829,Zr2NiAs2,"[Element As, Element Ni, Element Zr]",Zr2 Ni1 As2,crystal_system=<CrystalSystem.hex_: 'Hexagonal'> symbol='P6_3/mmc' number=194 point_group='6/mmm' symprec=0.1 version='1.16.2',hex_,7.416641621408723,175.07794926072108,138.58400883886281,68.001022538391,0.28914544516701574,True,True
1830,Ti2C,"[Element C, Element Ti]",Ti2 C1,crystal_system=<CrystalSystem.cubic: 'Cubic'> symbol='Fd-3m' number=227 point_group='m-3m' symprec=0.1 version='1.16.2',cubic,4.46157711084745,160.40451985832723,138.9378923332192,78.188154943744,0.26306707400423107,True,True
1831,Ti5Si3,"[Element Si, Element Ti]",Ti5 Si3,crystal_system=<CrystalSystem.hex_: 'Hexagonal'> symbol='P6_3/mcm' number=193 point_group='6/mmm' symprec=0.1 version='1.16.2',hex_,4.374481682676191,245.66856891761668,138.9600469376611,94.3622136487631,0.22313850908896948,True,True
1832,Ti2GaC,"[Element C, Element Ga, Element Ti]",Ti2 Ga1 C1,crystal_system=<CrystalSystem.hex_: 'Hexagonal'> symbol='P6_3/mmc' number=194 point_group='6/mmm' symprec=0.1 version='1.16.2',hex_,5.412684587681606,108.88942229529508,138.98321875937,108.2274182249539,0.19088306550501621,True,True
1833,NbZn2N3,"[Element N, Element Nb, Element Zn]",Nb1 Zn2 N3,crystal_system=<CrystalSystem.ortho: 'Orthorhombic'> symbol='Cmc2_1' number=36 point_group='mm2' symprec=0.1 version='1.16.2',ortho,5.7882962586435225,152.47287666534035,138.98508644618983,52.826255478181295,0.33132715801263257,False,False
1834,Ti3Au,"[Element Au, Element Ti]",Ti3 Au1,crystal_system=<CrystalSystem.cubic: 'Cubic'> symbol='Pm-3n' number=223 point_group='m-3m' symprec=0.1 version='1.16.2',cubic,8.597093951987127,131.56207348665203,138.99626373616965,70.73486588256128,0.2824540653683527,True,True
1835,ThC,"[Element C, Element Th]",Th1 C1,crystal_system=<CrystalSystem.cubic: 'Cubic'> symbol='Fm-3m' number=225 point_group='m-3m' symprec=0.1 version='1.16.2',cubic,10.50675180594638,38.570674136028565,139.01189123207908,73.40232030151398,0.275499692520201,True,True
1836,Pd4Se,"[Element Pd, Element Se]",Pd4 Se1,crystal_system=<CrystalSystem.tet: 'Tetragonal'> symbol='P-42_1c' number=114 point_group='-42m' symprec=0.1 version='1.16.2',tet,10.564835863171924,158.63463387824663,139.0272964098143,37.06842764691291,0.3775677580656464,True,True
1837,SnRh,"[Element Rh, Element Sn]",Sn1 Rh1,crystal_system=<CrystalSystem.cubic: 'Cubic'> symbol='P2_13' number=198 point_group='23' symprec=0.1 version='1.16.2',cubic,10.709678283446108,137.44621856023807,139.08944347478075,54.22977166216336,0.327476171943698,True,True
1838,ZnPd,"[Element Pd, Element Zn]",Zn1 Pd1,crystal_system=<CrystalSystem.tet: 'Tetragonal'> symbol='P4/mmm' number=123 point_group='4/mmm' symprec=0.1 version='1.16.2',tet,10.192877347918426,55.98591203161702,139.09419386694313,54.95043855757446,0.32545553928288795,True,True
1839,Cu,[Element Cu],Cu1,crystal_system=<CrystalSystem.cubic: 'Cubic'> symbol='Fm-3m' number=225 point_group='m-3m' symprec=0.1 version='1.16.2',cubic,9.21899604714547,11.445998564977856,139.37544786242316,41.11827954596613,0.36569811335372915,True,True
1840,ScFeSi,"[Element Fe, Element Sc, Element Si]",Sc1 Fe1 Si1,crystal_system=<CrystalSystem.ortho: 'Orthorhombic'> symbol='Pnma' number=62 point_group='mmm' symprec=0.1 version='1.16.2',ortho,4.848691618001308,176.5597312770534,139.43293825091,61.741046093074715,0.30707525209170045,True,True
1841,ZrInNi2,"[Element In, Element Ni, Element Zr]",Zr1 In1 Ni2,crystal_system=<CrystalSystem.cubic: 'Cubic'> symbol='Fm-3m' number=225 point_group='m-3m' symprec=0.1 version='1.16.2',cubic,8.71809142572615,61.60363908076642,139.46965046353327,51.17738445841938,0.33652404078403425,True,True
1842,Sc2SO2,"[Element O, Element S, Element Sc]",Sc2 S1 O2,crystal_system=<CrystalSystem.hex_: 'Hexagonal'> symbol='P6_3/mmc' number=194 point_group='6/mmm' symprec=0.1 version='1.16.2',hex_,3.7577851876187363,136.0815087560316,139.50278647066736,67.27325038441575,0.2922731664977744,False,True
1843,Y(FeSi)2,"[Element Fe, Element Si, Element Y]",Y1 Fe2 Si2,crystal_system=<CrystalSystem.tet: 'Tetragonal'> symbol='I4/mmm' number=139 point_group='4/mmm' symprec=0.1 version='1.16.2',tet,5.790277633941662,73.6357412179172,139.72910577324592,79.6507371706166,0.26049119612979504,True,True
1844,MnSnO3,"[Element Mn, Element O, Element Sn]",Mn1 Sn1 O3,crystal_system=<CrystalSystem.trig: 'Trigonal'> symbol='R-3' number=148 point_group='-3' symprec=0.1 version='1.16.2',trig,6.105962311348783,120.55503457779893,139.76116835979332,54.47513115431279,0.32752251783508923,False,True
1845,ScInPt2,"[Element In, Element Pt, Element Sc]",Sc1 In1 Pt2,crystal_system=<CrystalSystem.cubic: 'Cubic'> symbol='Fm-3m' number=225 point_group='m-3m' symprec=0.1 version='1.16.2',cubic,12.949198147138864,70.52174342072846,139.7869901564395,5.778987439273386,0.4796102883352737,True,True
1846,Sb7Pd20,"[Element Pd, Element Sb]",Sb7 Pd20,crystal_system=<CrystalSystem.trig: 'Trigonal'> symbol='R-3' number=148 point_group='-3' symprec=0.1 version='1.16.2',trig,11.03711445528964,448.4507274656202,139.79558355734582,28.025058390804524,0.4060427401899391,True,True
1847,ScRh2Pb,"[Element Pb, Element Rh, Element Sc]",Sc1 Rh2 Pb1,crystal_system=<CrystalSystem.cubic: 'Cubic'> symbol='Fm-3m' number=225 point_group='m-3m' symprec=0.1 version='1.16.2',cubic,11.012481632449113,69.05545670517859,139.79815922254386,87.36309215948583,0.24140566211189463,True,False
1848,LiZrPt2,"[Element Li, Element Pt, Element Zr]",Li1 Zr1 Pt2,crystal_system=<CrystalSystem.cubic: 'Cubic'> symbol='Fm-3m' number=225 point_group='m-3m' symprec=0.1 version='1.16.2',cubic,12.428210363046484,65.24640316847724,139.81015197500665,17.19973440092656,0.440912007064536,True,False
1849,GdTaO4,"[Element Gd, Element O, Element Ta]",Gd1 Ta1 O4,crystal_system=<CrystalSystem.mono: 'Monoclinic'> symbol='P2/c' number=13 point_group='2/m' symprec=0.1 version='1.16.2',mono,8.798098530809094,151.81946521995152,139.81431667558468,64.65646835140674,0.29965953511774474,False,True
1850,HfCoSn,"[Element Co, Element Hf, Element Sn]",Hf1 Co1 Sn1,crystal_system=<CrystalSystem.hex_: 'Hexagonal'> symbol='P-62c' number=190 point_group='-6m2' symprec=0.1 version='1.16.2',hex_,11.585585000264809,306.263214087364,139.83420505432113,72.33568036168047,0.27939188239341955,True,True
1851,Be17Nb2,"[Element Be, Element Nb]",Be17 Nb2,crystal_system=<CrystalSystem.trig: 'Trigonal'> symbol='R-3m' number=166 point_group='-3m' symprec=0.1 version='1.16.2',trig,3.3314072685998286,168.9843560186009,139.85701904995108,151.90764118401768,0.10127741866783525,True,True
1852,Sc2CoOs,"[Element Co, Element Os, Element Sc]",Sc2 Co1 Os1,crystal_system=<CrystalSystem.cubic: 'Cubic'> symbol='Fm-3m' number=225 point_group='m-3m' symprec=0.1 version='1.16.2',cubic,8.873772927314958,63.450723854391555,139.87238439831577,62.99658890565289,0.30420183862319033,True,False
1853,Tb2O3,"[Element O, Element Tb]",Tb2 O3,crystal_system=<CrystalSystem.cubic: 'Cubic'> symbol='Ia-3' number=206 point_group='m-3' symprec=0.1 version='1.16.2',cubic,8.013812686078552,606.4592869538722,140.006208019624,61.350753448375926,0.3088242948707757,False,True
1854,VAs,"[Element As, Element V]",V1 As1,crystal_system=<CrystalSystem.ortho: 'Orthorhombic'> symbol='Pnma' number=62 point_group='mmm' symprec=0.1 version='1.16.2',ortho,6.877322115944111,121.55928779828052,140.19680569700182,85.73626751386918,0.2460050888466137,True,True