,Formula,Elements,Composition,Symmetry,Crystal system,Density [g/m$^3$],Volume [$\mathring{A}^3$],Bulk modulus[GPa],Shear modulus [GPa],Poisson,Metal,Experimental report
1098,HfGeTe,"[Element Ge, Element Hf, Element Te]",Hf1 Ge1 Te1,crystal_system=<CrystalSystem.tet: 'Tetragonal'> symbol='P4/nmm' number=129 point_group='4/mmm' symprec=0.1 version='1.16.2',tet,8.896721385584188,141.37701596735403,94.97734236476103,61.52003175537727,0.2336426634626814,True,True
1099,RbScO2,"[Element O, Element Rb, Element Sc]",Rb1 Sc1 O2,crystal_system=<CrystalSystem.hex_: 'Hexagonal'> symbol='P6_3/mmc' number=194 point_group='6/mmm' symprec=0.1 version='1.16.2',hex_,4.584490911311013,117.66145104830382,95.00692296307548,55.38156972253297,0.25595833177119753,False,True
1100,BaTiO3,"[Element Ba, Element O, Element Ti]",Ba1 Ti1 O3,crystal_system=<CrystalSystem.trig: 'Trigonal'> symbol='R3m' number=160 point_group='3m' symprec=0.1 version='1.16.2',trig,5.89961040436988,65.6356490658401,95.07892731074455,45.042879402942894,0.29543300113824367,False,True
1101,LiInPd2,"[Element In, Element Li, Element Pd]",Li1 In1 Pd2,crystal_system=<CrystalSystem.cubic: 'Cubic'> symbol='Fm-3m' number=225 point_group='m-3m' symprec=0.1 version='1.16.2',cubic,8.902651213372037,62.41002796006925,95.32809887543306,-63.41080494877439,0.9273474199747495,True,False
1102,Sr4Cu2O7,"[Element Cu, Element O, Element Sr]",Sr4 Cu2 O7,crystal_system=<CrystalSystem.mono: 'Monoclinic'> symbol='P2_1/c' number=14 point_group='2/m' symprec=0.1 version='1.16.2',mono,5.4258944985262305,360.86229268752993,95.33844732992453,52.70346430918899,0.2666052342130446,False,False
1103,CaPPt,"[Element Ca, Element P, Element Pt]",Ca1 P1 Pt1,crystal_system=<CrystalSystem.ortho: 'Orthorhombic'> symbol='Pmc2_1' number=26 point_group='mm2' symprec=0.1 version='1.16.2',ortho,7.442567694580996,237.5141741160822,95.39426984793587,44.59361872503371,0.29777752472378477,True,True
1104,NiSbS,"[Element Ni, Element S, Element Sb]",Ni1 Sb1 S1,crystal_system=<CrystalSystem.cubic: 'Cubic'> symbol='P2_13' number=198 point_group='23' symprec=0.1 version='1.16.2',cubic,6.7737243807894805,208.39059030635983,95.75330146543774,50.77574811088381,0.27468760587404567,True,True
1105,Sr2PdO3,"[Element O, Element Pd, Element Sr]",Sr2 Pd1 O3,crystal_system=<CrystalSystem.ortho: 'Orthorhombic'> symbol='Immm' number=71 point_group='mmm' symprec=0.1 version='1.16.2',ortho,6.027965995755455,90.81177964681467,95.75418018540216,55.42425282095829,0.2573983566389247,False,True
1106,SrSiN2,"[Element N, Element Si, Element Sr]",Sr1 Si1 N2,crystal_system=<CrystalSystem.mono: 'Monoclinic'> symbol='P2_1/c' number=14 point_group='2/m' symprec=0.1 version='1.16.2',mono,4.3192919610791325,221.0092304102121,95.82558775315678,32.11934808847584,0.34925028677754794,False,True
1107,LiTlPd2,"[Element Li, Element Pd, Element Tl]",Li1 Tl1 Pd2,crystal_system=<CrystalSystem.tet: 'Tetragonal'> symbol='I4/mmm' number=139 point_group='4/mmm' symprec=0.1 version='1.16.2',tet,10.869389175625832,64.80045745224577,95.85399301285105,35.43606706430622,0.3354352255755371,True,True
1108,TiZn3,"[Element Ti, Element Zn]",Ti1 Zn3,crystal_system=<CrystalSystem.cubic: 'Cubic'> symbol='Pm-3m' number=221 point_group='m-3m' symprec=0.1 version='1.16.2',cubic,6.934757263983796,58.44871096321728,95.8792131933127,24.071869539174603,0.38416200580212606,True,True
1109,Al12Re,"[Element Al, Element Re]",Al12 Re1,crystal_system=<CrystalSystem.cubic: 'Cubic'> symbol='Im-3' number=204 point_group='m-3' symprec=0.1 version='1.16.2',cubic,4.050676921349123,209.06401608540122,95.89873388814989,78.82177788858314,0.17741646132323718,True,True
1110,Ba2SnO4,"[Element Ba, Element O, Element Sn]",Ba2 Sn1 O4,crystal_system=<CrystalSystem.tet: 'Tetragonal'> symbol='I4/mmm' number=139 point_group='4/mmm' symprec=0.1 version='1.16.2',tet,6.514413199418974,116.58253492892035,95.98002234430152,51.71275380937469,0.27162229796383197,False,True
1111,LiTiPO5,"[Element Li, Element O, Element P, Element Ti]",Li1 Ti1 P1 O5,crystal_system=<CrystalSystem.ortho: 'Orthorhombic'> symbol='Pnma' number=62 point_group='mmm' symprec=0.1 version='1.16.2',ortho,3.2641743985585956,337.337503578416,96.00202948539058,57.52928743762486,0.2502602130585886,False,True
1112,NbSn2,"[Element Nb, Element Sn]",Nb1 Sn2,crystal_system=<CrystalSystem.ortho: 'Orthorhombic'> symbol='Fddd' number=70 point_group='mmm' symprec=0.1 version='1.16.2',ortho,8.07205862227532,271.8116328862548,96.01663267125986,48.93531935108008,0.2821774509854969,True,True
1113,Zn3Cu,"[Element Cu, Element Zn]",Zn3 Cu1,crystal_system=<CrystalSystem.hex_: 'Hexagonal'> symbol='P6_3/mmc' number=194 point_group='6/mmm' symprec=0.1 version='1.16.2',hex_,8.167119435897776,105.63411453293237,96.14196591854503,39.80715394349499,0.31808434401671587,True,False
1114,Mn2V2O7,"[Element Mn, Element O, Element V]",Mn2 V2 O7,crystal_system=<CrystalSystem.mono: 'Monoclinic'> symbol='C2/m' number=12 point_group='2/m' symprec=0.1 version='1.16.2',mono,3.9448942034884493,136.27935633163042,96.3951672686222,32.446719439375485,0.34867785021466285,False,True
1115,MgCN2,"[Element C, Element Mg, Element N]",Mg1 C1 N2,crystal_system=<CrystalSystem.trig: 'Trigonal'> symbol='R-3m' number=166 point_group='-3m' symprec=0.1 version='1.16.2',trig,2.4610648054629407,43.40437660646014,96.4324504275108,35.01235666298586,0.3380605522813966,False,True
1116,ScAlAg2,"[Element Ag, Element Al, Element Sc]",Sc1 Al1 Ag2,crystal_system=<CrystalSystem.cubic: 'Cubic'> symbol='Fm-3m' number=225 point_group='m-3m' symprec=0.1 version='1.16.2',cubic,6.765377841810662,70.60857183886475,96.5010379473617,25.302092043719618,0.37943929339165094,True,True
1117,CdF2,"[Element Cd, Element F]",Cd1 F2,crystal_system=<CrystalSystem.cubic: 'Cubic'> symbol='Fm-3m' number=225 point_group='m-3m' symprec=0.1 version='1.16.2',cubic,6.340854969929461,39.38870067731385,96.62557178539494,28.0525623805056,0.36764715766250333,False,True
1118,Zr3In,"[Element In, Element Zr]",Zr3 In1,crystal_system=<CrystalSystem.cubic: 'Cubic'> symbol='Pm-3m' number=221 point_group='m-3m' symprec=0.1 version='1.16.2',cubic,7.237709751119266,89.13079470804598,96.69946304937062,50.76378021537306,0.2766086202371722,True,True
1119,ScH2,"[Element H, Element Sc]",Sc1 H2,crystal_system=<CrystalSystem.cubic: 'Cubic'> symbol='Fm-3m' number=225 point_group='m-3m' symprec=0.1 version='1.16.2',cubic,2.8779936277994316,27.101691571099302,96.76806601867852,62.53909293260388,0.23413511948587348,True,True
1120,ScSbPd,"[Element Pd, Element Sb, Element Sc]",Sc1 Sb1 Pd1,crystal_system=<CrystalSystem.cubic: 'Cubic'> symbol='F-43m' number=216 point_group='-43m' symprec=0.1 version='1.16.2',cubic,7.085385842478886,64.0124422932965,96.80246937876564,45.82055581839302,0.29558263709186394,False,True
1121,YSbPt,"[Element Pt, Element Sb, Element Y]",Y1 Sb1 Pt1,crystal_system=<CrystalSystem.cubic: 'Cubic'> symbol='F-43m' number=216 point_group='-43m' symprec=0.1 version='1.16.2',cubic,9.442610857880519,71.3535151805803,96.86677029731177,47.40371829602286,0.28963097684112604,False,True
1122,Sc3PbC,"[Element C, Element Pb, Element Sc]",Sc3 Pb1 C1,crystal_system=<CrystalSystem.cubic: 'Cubic'> symbol='Pm-3m' number=221 point_group='m-3m' symprec=0.1 version='1.16.2',cubic,6.225135998355417,94.44951496223662,96.96002458460902,75.98310247151213,0.18932653617636108,True,True
1123,NbSb2,"[Element Nb, Element Sb]",Nb1 Sb2,crystal_system=<CrystalSystem.mono: 'Monoclinic'> symbol='C2/m' number=12 point_group='2/m' symprec=0.1 version='1.16.2',mono,8.096961771913241,137.9898195796503,96.97265161416925,69.28474475264976,0.21147601823700543,False,True
1124,Co3(SnS)2,"[Element Co, Element S, Element Sn]",Co3 Sn2 S2,crystal_system=<CrystalSystem.trig: 'Trigonal'> symbol='R-3m' number=166 point_group='-3m' symprec=0.1 version='1.16.2',trig,7.350991392042955,108.05592484358002,96.97675638605143,56.50817122462733,0.2560366183328584,True,True
1125,Sc3TlC,"[Element C, Element Sc, Element Tl]",Sc3 Tl1 C1,crystal_system=<CrystalSystem.cubic: 'Cubic'> symbol='Pm-3m' number=221 point_group='m-3m' symprec=0.1 version='1.16.2',cubic,6.215917686929775,93.83712343170306,97.0463172533517,81.71513669494917,0.17125825131667902,True,True
1126,MgInCu4,"[Element Cu, Element In, Element Mg]",Mg1 In1 Cu4,crystal_system=<CrystalSystem.cubic: 'Cubic'> symbol='F-43m' number=216 point_group='-43m' symprec=0.1 version='1.16.2',cubic,7.692928541576738,84.89636100706413,97.07506076619997,23.62595269173933,0.38744227001533155,True,True
1127,LiHgPd2,"[Element Hg, Element Li, Element Pd]",Li1 Hg1 Pd2,crystal_system=<CrystalSystem.cubic: 'Cubic'> symbol='Fm-3m' number=225 point_group='m-3m' symprec=0.1 version='1.16.2',cubic,10.952795518279402,63.73189993374089,97.08025272551751,17.72068249791247,0.41396653352974355,True,False
1128,FeF2,"[Element F, Element Fe]",Fe1 F2,crystal_system=<CrystalSystem.tet: 'Tetragonal'> symbol='P4_2/mnm' number=136 point_group='4/mmm' symprec=0.1 version='1.16.2',tet,4.318802548760486,72.16258851761452,97.11733904102614,33.33449186110313,0.3459999525447153,False,True
1129,Ca2SiIr2,"[Element Ca, Element Ir, Element Si]",Ca2 Si1 Ir2,crystal_system=<CrystalSystem.mono: 'Monoclinic'> symbol='C2/c' number=15 point_group='2/m' symprec=0.1 version='1.16.2',mono,8.074295070878213,202.64479009625933,97.14113099442889,39.93493365967164,0.3192216833770625,True,True
1130,Ca(CoGe)2,"[Element Ca, Element Co, Element Ge]",Ca1 Co2 Ge2,crystal_system=<CrystalSystem.tet: 'Tetragonal'> symbol='I4/mmm' number=139 point_group='4/mmm' symprec=0.1 version='1.16.2',tet,6.310175514334459,79.79428534073996,97.26342104990667,59.77196149972956,0.24497276452555664,True,True
1131,Sc3InC,"[Element C, Element In, Element Sc]",Sc3 In1 C1,crystal_system=<CrystalSystem.cubic: 'Cubic'> symbol='Pm-3m' number=221 point_group='m-3m' symprec=0.1 version='1.16.2',cubic,4.611424323599721,94.2349098832803,97.44328837748635,81.53936960225637,0.1728560602474531,True,True
1132,ScP,"[Element P, Element Sc]",Sc1 P1,crystal_system=<CrystalSystem.cubic: 'Cubic'> symbol='Fm-3m' number=225 point_group='m-3m' symprec=0.1 version='1.16.2',cubic,3.336856239462343,37.78532275382587,97.57368203083072,62.67137615582929,0.23548376850855054,True,True
1133,KScO2,"[Element K, Element O, Element Sc]",K1 Sc1 O2,crystal_system=<CrystalSystem.trig: 'Trigonal'> symbol='R-3m' number=166 point_group='-3m' symprec=0.1 version='1.16.2',trig,3.511130091629651,54.885622347634005,97.59641337049672,62.08144450146639,0.23758844900427808,False,True
1134,Nb5Sb4,"[Element Nb, Element Sb]",Nb5 Sb4,crystal_system=<CrystalSystem.tet: 'Tetragonal'> symbol='I4/m' number=87 point_group='4/m' symprec=0.1 version='1.16.2',tet,8.130636481520265,194.3417736385304,97.6604039570619,54.6256841399167,0.2642781913991201,True,True
1135,Ba(NiP2)2,"[Element Ba, Element Ni, Element P]",Ba1 Ni2 P4,crystal_system=<CrystalSystem.ortho: 'Orthorhombic'> symbol='Immm' number=71 point_group='mmm' symprec=0.1 version='1.16.2',ortho,5.098309075612511,123.31437222426335,97.7292675284815,42.91778195073765,0.3084629476926283,True,True
1136,Sr2CuO3,"[Element Cu, Element O, Element Sr]",Sr2 Cu1 O3,crystal_system=<CrystalSystem.ortho: 'Orthorhombic'> symbol='Immm' number=71 point_group='mmm' symprec=0.1 version='1.16.2',ortho,5.465340310439675,87.13389116391858,97.822103641225,54.24269993268591,0.265999593457069,True,True
1137,CaNiN,"[Element Ca, Element N, Element Ni]",Ca1 Ni1 N1,crystal_system=<CrystalSystem.tet: 'Tetragonal'> symbol='P4_2/mmc' number=131 point_group='4/mmm' symprec=0.1 version='1.16.2',tet,4.249631341864863,88.13585266186446,97.84815844557505,54.843908641283264,0.26386737691254997,True,True
1138,YCdPd2,"[Element Cd, Element Pd, Element Y]",Y1 Cd1 Pd2,crystal_system=<CrystalSystem.cubic: 'Cubic'> symbol='Fm-3m' number=225 point_group='m-3m' symprec=0.1 version='1.16.2',cubic,8.969876513821024,76.67035639401871,97.85623464078841,23.260274877704738,0.38987619614626806,True,False
1139,Mg2RhAu,"[Element Au, Element Mg, Element Rh]",Mg2 Rh1 Au1,crystal_system=<CrystalSystem.cubic: 'Cubic'> symbol='Fm-3m' number=225 point_group='m-3m' symprec=0.1 version='1.16.2',cubic,9.158371825299092,63.184603183022524,98.01106932743014,-525.3652413414554,-2.906566097089822,True,False
1140,Mg2Cu3Si,"[Element Cu, Element Mg, Element Si]",Mg2 Cu3 Si1,crystal_system=<CrystalSystem.hex_: 'Hexagonal'> symbol='P6_3/mmc' number=194 point_group='6/mmm' symprec=0.1 version='1.16.2',hex_,5.313903824023601,167.07781520395824,98.11869801373068,63.72709310564073,0.23304907046846648,True,True
1141,TePd,"[Element Pd, Element Te]",Te1 Pd1,crystal_system=<CrystalSystem.hex_: 'Hexagonal'> symbol='P6_3/mmc' number=194 point_group='6/mmm' symprec=0.1 version='1.16.2',hex_,8.94275327712651,86.90821278938311,98.21033867374038,20.180246260159024,0.4038459768850877,True,True
1142,La2SiO5,"[Element La, Element O, Element Si]",La2 Si1 O5,crystal_system=<CrystalSystem.mono: 'Monoclinic'> symbol='P2_1/c' number=14 point_group='2/m' symprec=0.1 version='1.16.2',mono,5.483198857663591,467.457883107093,98.22177231580892,43.42775624065622,0.30732632660372283,False,True
1143,Ba(CoN)2,"[Element Ba, Element Co, Element N]",Ba1 Co2 N2,crystal_system=<CrystalSystem.tet: 'Tetragonal'> symbol='I4/mcm' number=140 point_group='4/mmm' symprec=0.1 version='1.16.2',tet,5.688027421161573,165.35642460927005,98.22918921523076,33.270995697283276,0.34782683203263937,True,False
1144,LiGa2Pt,"[Element Ga, Element Li, Element Pt]",Li1 Ga2 Pt1,crystal_system=<CrystalSystem.cubic: 'Cubic'> symbol='Fm-3m' number=225 point_group='m-3m' symprec=0.1 version='1.16.2',cubic,9.990146488490504,56.75852063473048,98.27915112039435,25.518398778011505,0.38051537716131484,True,True
1145,LiMgN,"[Element Li, Element Mg, Element N]",Li1 Mg1 N1,crystal_system=<CrystalSystem.cubic: 'Cubic'> symbol='F-43m' number=216 point_group='-43m' symprec=0.1 version='1.16.2',cubic,2.4675928982460373,30.452298785809447,98.34940057923299,83.57006155684726,0.1689143010574985,False,False
1146,Ba(BeN)2,"[Element Ba, Element Be, Element N]",Ba1 Be2 N2,crystal_system=<CrystalSystem.tet: 'Tetragonal'> symbol='I4/mcm' number=140 point_group='4/mmm' symprec=0.1 version='1.16.2',tet,4.478603722728969,135.9728937457125,98.35763910262651,61.16006193013847,0.2424716456869331,False,True
1147,VSb2,"[Element Sb, Element V]",V1 Sb2,crystal_system=<CrystalSystem.tet: 'Tetragonal'> symbol='I4/mcm' number=140 point_group='4/mmm' symprec=0.1 version='1.16.2',tet,8.0744531039737,121.11404154889459,98.37537606350378,47.15637373211257,0.2933445028570025,True,True
1148,Ni3Sn4,"[Element Ni, Element Sn]",Ni3 Sn4,crystal_system=<CrystalSystem.mono: 'Monoclinic'> symbol='C2/m' number=12 point_group='2/m' symprec=0.1 version='1.16.2',mono,8.701535132444633,124.21698066918226,98.43620480318012,47.46027294663597,0.2923078434304368,True,True
1149,ZnF2,"[Element F, Element Zn]",Zn1 F2,crystal_system=<CrystalSystem.tet: 'Tetragonal'> symbol='P4_2/mnm' number=136 point_group='4/mmm' symprec=0.1 version='1.16.2',tet,4.956090144702919,69.29227525209552,98.49302674473932,34.697381479119244,0.3423689200962307,False,True
1150,Mg2SiPt,"[Element Mg, Element Pt, Element Si]",Mg2 Si1 Pt1,crystal_system=<CrystalSystem.hex_: 'Hexagonal'> symbol='P6_3/mmc' number=194 point_group='6/mmm' symprec=0.1 version='1.16.2',hex_,6.720793816167069,134.29975374795697,98.63140278434798,59.73776837858102,0.24803544554292845,True,True
1151,Sb3Ir,"[Element Ir, Element Sb]",Sb3 Ir1,crystal_system=<CrystalSystem.cubic: 'Cubic'> symbol='Im-3' number=204 point_group='m-3' symprec=0.1 version='1.16.2',cubic,9.127834283044729,405.6802607522815,98.71806007007655,59.670187032338795,0.24845657355587542,False,True
1152,LiAu3,"[Element Au, Element Li]",Li1 Au3,crystal_system=<CrystalSystem.cubic: 'Cubic'> symbol='Pm-3m' number=221 point_group='m-3m' symprec=0.1 version='1.16.2',cubic,15.186595042949437,65.36935019138177,98.80925267935389,24.470197688852437,0.3856169200263929,True,True
1153,Li2FeO3,"[Element Fe, Element Li, Element O]",Li2 Fe1 O3,crystal_system=<CrystalSystem.mono: 'Monoclinic'> symbol='C2' number=5 point_group='2' symprec=0.1 version='1.16.2',mono,3.6288091331455052,215.4836879545076,98.8587337629456,63.40201189180365,0.23580896188852996,False,False
1154,CaAu5,"[Element Au, Element Ca]",Ca1 Au5,crystal_system=<CrystalSystem.cubic: 'Cubic'> symbol='F-43m' number=216 point_group='-43m' symprec=0.1 version='1.16.2',cubic,14.347104780012685,118.62354976841621,98.86852561992967,26.825821280053137,0.37558804695058806,True,True
1155,ZrMnGe,"[Element Ge, Element Mn, Element Zr]",Zr1 Mn1 Ge1,crystal_system=<CrystalSystem.ortho: 'Orthorhombic'> symbol='Pnma' number=62 point_group='mmm' symprec=0.1 version='1.16.2',ortho,7.069852934789805,205.5654322236752,98.93265288889677,70.20960623233682,0.21304567147688133,True,True
1156,Li3GaN2,"[Element Ga, Element Li, Element N]",Li3 Ga1 N2,crystal_system=<CrystalSystem.cubic: 'Cubic'> symbol='Ia-3' number=206 point_group='m-3' symprec=0.1 version='1.16.2',cubic,3.594945496357451,438.10959718223364,98.95017954916241,88.02184352975058,0.15694403805305163,False,True
1157,BaPd5,"[Element Ba, Element Pd]",Ba1 Pd5,crystal_system=<CrystalSystem.hex_: 'Hexagonal'> symbol='P6/mmm' number=191 point_group='6/mmm' symprec=0.1 version='1.16.2',hex_,9.507435140294417,116.92003882578314,99.01010274559815,40.11427082092783,0.3215264015231583,True,True
1158,Ba(PIr)2,"[Element Ba, Element Ir, Element P]",Ba1 P2 Ir2,crystal_system=<CrystalSystem.tet: 'Tetragonal'> symbol='I4/mmm' number=139 point_group='4/mmm' symprec=0.1 version='1.16.2',tet,9.616446322084677,100.79303467679553,99.06576279487908,49.70742046511947,0.2850674009444727,True,True
1159,LiSc2Ir,"[Element Ir, Element Li, Element Sc]",Li1 Sc2 Ir1,crystal_system=<CrystalSystem.cubic: 'Cubic'> symbol='Fm-3m' number=225 point_group='m-3m' symprec=0.1 version='1.16.2',cubic,6.905796391382515,69.50852711588412,99.11703225322702,36.982851662370145,0.33407524795081095,True,False
1160,Na2Hf2O5,"[Element Hf, Element Na, Element O]",Na2 Hf2 O5,crystal_system=<CrystalSystem.tet: 'Tetragonal'> symbol='P4/mmm' number=123 point_group='4/mmm' symprec=0.1 version='1.16.2',tet,6.467203620556658,124.00540431410766,99.2698587852377,32.5236887698886,0.3523141980984467,False,False
1161,MnCO3,"[Element C, Element Mn, Element O]",Mn1 C1 O3,crystal_system=<CrystalSystem.trig: 'Trigonal'> symbol='R-3c' number=167 point_group='-3m' symprec=0.1 version='1.16.2',trig,3.7362923636267213,102.17288915450139,99.37209652256652,44.06988626785268,0.306816189343816,False,True
1162,CoF2,"[Element Co, Element F]",Co1 F2,crystal_system=<CrystalSystem.tet: 'Tetragonal'> symbol='P4_2/mnm' number=136 point_group='4/mmm' symprec=0.1 version='1.16.2',tet,4.6666602511698665,68.98126085349506,99.51695075494248,36.15109403448818,0.33798528317119875,False,True
1163,Ag2BiO3,"[Element Ag, Element Bi, Element O]",Ag2 Bi1 O3,crystal_system=<CrystalSystem.ortho: 'Orthorhombic'> symbol='Pnn2' number=34 point_group='mm2' symprec=0.1 version='1.16.2',ortho,8.565435840877605,366.5717609472597,99.60153327386506,20.92527496051249,0.40182990418971876,False,True
1164,Al2Cu,"[Element Al, Element Cu]",Al2 Cu1,crystal_system=<CrystalSystem.cubic: 'Cubic'> symbol='Fm-3m' number=225 point_group='m-3m' symprec=0.1 version='1.16.2',cubic,4.15061559653069,47.011921203643695,99.63617578431726,47.09422762463876,0.2958358989322691,True,False
1165,TiGa3,"[Element Ga, Element Ti]",Ti1 Ga3,crystal_system=<CrystalSystem.tet: 'Tetragonal'> symbol='I4/mmm' number=139 point_group='4/mmm' symprec=0.1 version='1.16.2',tet,6.907833201746608,61.78758332130528,99.7029020874414,74.17168844187944,0.20194648783796348,True,True
1166,LiZn2Rh,"[Element Li, Element Rh, Element Zn]",Li1 Zn2 Rh1,crystal_system=<CrystalSystem.cubic: 'Cubic'> symbol='Fm-3m' number=225 point_group='m-3m' symprec=0.1 version='1.16.2',cubic,7.540411615504153,52.99880491564334,99.76742833495187,32.79066343134938,0.35189087760328436,True,False