,Formula,Elements,Composition,Symmetry,Crystal system,Density [g/m$^3$],Volume [$\mathring{A}^3$],Bulk modulus[GPa],Shear modulus [GPa],Poisson,Metal,Experimental report
342,CdSnP2,"[Element Cd, Element P, Element Sn]",Cd1 Sn1 P2,crystal_system=<CrystalSystem.tet: 'Tetragonal'> symbol='I-42d' number=122 point_group='-42m' symprec=0.1 version='1.16.2',tet,4.76289313366444,204.35131321889773,56.89749845441392,28.84908636995675,0.2831347773277898,False,True
343,CaZrF6,"[Element Ca, Element F, Element Zr]",Ca1 Zr1 F6,crystal_system=<CrystalSystem.cubic: 'Cubic'> symbol='Fm-3m' number=225 point_group='m-3m' symprec=0.1 version='1.16.2',cubic,2.618926494587114,155.528475375037,56.986150916817685,23.12562468610403,0.32127108268067417,False,True
344,CaS,"[Element Ca, Element S]",Ca1 S1,crystal_system=<CrystalSystem.cubic: 'Cubic'> symbol='Fm-3m' number=225 point_group='m-3m' symprec=0.1 version='1.16.2',cubic,2.5810342007468723,46.414057530527266,57.06500426934821,39.22249730997697,0.22039519937306523,False,True
345,Eu(AlGe)2,"[Element Al, Element Eu, Element Ge]",Eu1 Al2 Ge2,crystal_system=<CrystalSystem.trig: 'Trigonal'> symbol='P-3m1' number=164 point_group='-3m' symprec=0.1 version='1.16.2',trig,5.259595171826079,110.88174148477728,57.08433764874978,36.37540315434375,0.23720791327001908,True,True
346,CaPdPb,"[Element Ca, Element Pb, Element Pd]",Ca1 Pd1 Pb1,crystal_system=<CrystalSystem.hex_: 'Hexagonal'> symbol='P-62m' number=189 point_group='-6m2' symprec=0.1 version='1.16.2',hex_,8.398716918866414,209.7925263294477,57.111313659894584,25.43340011029402,0.30611568996098926,True,True
347,Mg3Au,"[Element Au, Element Mg]",Mg3 Au1,crystal_system=<CrystalSystem.hex_: 'Hexagonal'> symbol='P6_3cm' number=185 point_group='6mm' symprec=0.1 version='1.16.2',hex_,5.661457342444322,474.9472034205766,57.1151878678389,30.202827455957006,0.2752190382379835,True,True
348,SrCN2,"[Element C, Element N, Element Sr]",Sr1 C1 N2,crystal_system=<CrystalSystem.trig: 'Trigonal'> symbol='R-3m' number=166 point_group='-3m' symprec=0.1 version='1.16.2',trig,3.0698429338623443,69.04523105497147,57.20607469955061,16.611894774083126,0.3676203239399111,False,False
349,Pb2Au,"[Element Au, Element Pb]",Pb2 Au1,crystal_system=<CrystalSystem.tet: 'Tetragonal'> symbol='I4/mcm' number=140 point_group='4/mmm' symprec=0.1 version='1.16.2',tet,12.882576233135435,157.60792771037532,57.224830818083134,12.646417525175018,0.39708369880617406,True,True
350,BaCuP,"[Element Ba, Element Cu, Element P]",Ba1 Cu1 P1,crystal_system=<CrystalSystem.hex_: 'Hexagonal'> symbol='P6_3/mmc' number=194 point_group='6/mmm' symprec=0.1 version='1.16.2',hex_,5.453052742222389,141.20186397053243,57.264449155973125,36.94809410568489,0.23449382767156496,True,True
351,Ba(CuAs)2,"[Element As, Element Ba, Element Cu]",Ba1 Cu2 As2,crystal_system=<CrystalSystem.tet: 'Tetragonal'> symbol='I4/mmm' number=139 point_group='4/mmm' symprec=0.1 version='1.16.2',tet,6.580623174818893,104.53395501324908,57.40217341567348,27.46271965621928,0.29368840436167487,True,True
352,YMgAl,"[Element Al, Element Mg, Element Y]",Y1 Mg1 Al1,crystal_system=<CrystalSystem.hex_: 'Hexagonal'> symbol='P-62m' number=189 point_group='-6m2' symprec=0.1 version='1.16.2',hex_,3.274119434024143,213.3046238549817,57.44004770750274,43.923593907731636,0.19531884822919085,True,True
353,Ca(ZnAs)2,"[Element As, Element Ca, Element Zn]",Ca1 Zn2 As2,crystal_system=<CrystalSystem.trig: 'Trigonal'> symbol='P-3m1' number=164 point_group='-3m' symprec=0.1 version='1.16.2',trig,5.099458017771371,104.4424662256155,57.47084964722178,35.779408803358116,0.24221332184806713,False,True
354,Li4WO5,"[Element Li, Element O, Element W]",Li4 W1 O5,crystal_system=<CrystalSystem.tet: 'Tetragonal'> symbol='I4' number=79 point_group='4' symprec=0.1 version='1.16.2',tet,5.515655297838546,87.7891793835229,57.487988476777325,51.57915240525803,0.1546703627617667,False,False
355,BaSbPt,"[Element Ba, Element Pt, Element Sb]",Ba1 Sb1 Pt1,crystal_system=<CrystalSystem.hex_: 'Hexagonal'> symbol='P-6m2' number=187 point_group='-6m2' symprec=0.1 version='1.16.2',hex_,8.369479173236675,90.10939304663252,57.522356663884416,22.048021985592413,0.3300643971524295,True,True
356,KMnF3,"[Element F, Element K, Element Mn]",K1 Mn1 F3,crystal_system=<CrystalSystem.ortho: 'Orthorhombic'> symbol='Pnma' number=62 point_group='mmm' symprec=0.1 version='1.16.2',ortho,3.448779990624073,290.87827856162966,57.55117486569755,24.798127999087704,0.3116136709440176,False,True
357,YMgAg,"[Element Ag, Element Mg, Element Y]",Y1 Mg1 Ag1,crystal_system=<CrystalSystem.hex_: 'Hexagonal'> symbol='P-62m' number=189 point_group='-6m2' symprec=0.1 version='1.16.2',hex_,5.21283014912353,211.2731791540568,57.560292873778664,17.246329245046283,0.3637925858112485,True,True
358,ScBi,"[Element Bi, Element Sc]",Sc1 Bi1,crystal_system=<CrystalSystem.cubic: 'Cubic'> symbol='Fm-3m' number=225 point_group='m-3m' symprec=0.1 version='1.16.2',cubic,7.715017430197649,54.65589291527027,57.566686932300115,29.713487153542353,0.2798060891594779,True,True
359,CaPd,"[Element Ca, Element Pd]",Ca1 Pd1,crystal_system=<CrystalSystem.cubic: 'Cubic'> symbol='Pm-3m' number=221 point_group='m-3m' symprec=0.1 version='1.16.2',cubic,5.646273922385516,43.08428098295106,57.5753079196014,21.90925484133269,0.331151375109248,True,True
360,Ca(AlGe)2,"[Element Al, Element Ca, Element Ge]",Ca1 Al2 Ge2,crystal_system=<CrystalSystem.trig: 'Trigonal'> symbol='P-3m1' number=164 point_group='-3m' symprec=0.1 version='1.16.2',trig,3.689476958858301,107.71228620827854,57.58760210567582,38.93831980463443,0.22410406700725044,True,True
361,Ba2HfS4,"[Element Ba, Element Hf, Element S]",Ba2 Hf1 S4,crystal_system=<CrystalSystem.tet: 'Tetragonal'> symbol='I4/mmm' number=139 point_group='4/mmm' symprec=0.1 version='1.16.2',tet,4.9765721093957715,193.9978029565265,57.60610559517078,30.21805134953881,0.276753901576103,False,True
362,Ca(AlGa)2,"[Element Al, Element Ca, Element Ga]",Ca1 Al2 Ga2,crystal_system=<CrystalSystem.tet: 'Tetragonal'> symbol='I4/mmm' number=139 point_group='4/mmm' symprec=0.1 version='1.16.2',tet,3.92829198111584,98.69796214249811,57.698975639969646,27.57912187292621,0.29385341171384316,True,True
363,Cu(BiO2)2,"[Element Bi, Element Cu, Element O]",Cu1 Bi2 O4,crystal_system=<CrystalSystem.tet: 'Tetragonal'> symbol='P4/ncc' number=130 point_group='4/mmm' symprec=0.1 version='1.16.2',tet,8.675057944387532,417.6716158020524,57.75503578814473,26.542659143299414,0.3007385327866717,True,True
364,MgP4,"[Element Mg, Element P]",Mg1 P4,crystal_system=<CrystalSystem.mono: 'Monoclinic'> symbol='P2_1/c' number=14 point_group='2/m' symprec=0.1 version='1.16.2',mono,2.5013063606807036,196.7707540703042,57.766909610393384,36.78672771249366,0.2373470435762573,False,True
365,Ag2Se,"[Element Ag, Element Se]",Ag2 Se1,crystal_system=<CrystalSystem.ortho: 'Orthorhombic'> symbol='P2_12_12_1' number=19 point_group='222' symprec=0.1 version='1.16.2',ortho,8.112695161000696,241.2785764902418,57.81677418598423,12.021172253444078,0.4027788156961675,True,True
366,Li2SnAu,"[Element Au, Element Li, Element Sn]",Li2 Sn1 Au1,crystal_system=<CrystalSystem.cubic: 'Cubic'> symbol='F-43m' number=216 point_group='-43m' symprec=0.1 version='1.16.2',cubic,8.067794399408212,67.83079134954568,57.83048357524115,23.702727736211077,0.3197000951973853,True,True
367,Li2ZrF6,"[Element F, Element Li, Element Zr]",Li2 Zr1 F6,crystal_system=<CrystalSystem.trig: 'Trigonal'> symbol='P-31m' number=162 point_group='-3m' symprec=0.1 version='1.16.2',trig,3.7284510390443137,97.57890330967713,57.87822753772872,35.46553712266795,0.24558464954649645,False,True
368,CdSO4,"[Element Cd, Element O, Element S]",Cd1 S1 O4,crystal_system=<CrystalSystem.ortho: 'Orthorhombic'> symbol='Cmcm' number=63 point_group='mmm' symprec=0.1 version='1.16.2',ortho,4.404317564057447,157.1996351851737,57.88351004171194,25.820746630294934,0.30583109219815074,False,True
369,ZrGeTe,"[Element Ge, Element Te, Element Zr]",Zr1 Ge1 Te1,crystal_system=<CrystalSystem.tet: 'Tetragonal'> symbol='P4/nmm' number=129 point_group='4/mmm' symprec=0.1 version='1.16.2',tet,6.756479699152542,143.26613267800047,58.045519222047794,44.37945986912502,0.1953578481131559,True,True
370,YSn2,"[Element Sn, Element Y]",Y1 Sn2,crystal_system=<CrystalSystem.ortho: 'Orthorhombic'> symbol='Cmcm' number=63 point_group='mmm' symprec=0.1 version='1.16.2',ortho,6.850534072392098,158.1998765761154,58.12255691147759,35.72648970844182,0.24492515903489862,True,True
371,Na(CuS)4,"[Element Cu, Element Na, Element S]",Na1 Cu4 S4,crystal_system=<CrystalSystem.trig: 'Trigonal'> symbol='P-3m1' number=164 point_group='-3m' symprec=0.1 version='1.16.2',trig,4.4857117205871875,150.08512689714325,58.24663475777761,21.567975909439596,0.33519783396347563,True,True
372,ZnSe,"[Element Se, Element Zn]",Zn1 Se1,crystal_system=<CrystalSystem.cubic: 'Cubic'> symbol='F-43m' number=216 point_group='-43m' symprec=0.1 version='1.16.2',cubic,5.274845268778988,45.44784771695639,58.26160401907752,27.52994996439468,0.29588773189878437,False,True
373,NaBiO3,"[Element Bi, Element Na, Element O]",Na1 Bi1 O3,crystal_system=<CrystalSystem.trig: 'Trigonal'> symbol='R-3' number=148 point_group='-3' symprec=0.1 version='1.16.2',trig,6.483681240488199,143.40569727537377,58.279697017055675,26.155506085094487,0.30480440923969676,False,True
374,CaTiF6,"[Element Ca, Element F, Element Ti]",Ca1 Ti1 F6,crystal_system=<CrystalSystem.cubic: 'Cubic'> symbol='Fm-3m' number=225 point_group='m-3m' symprec=0.1 version='1.16.2',cubic,2.3871500880959537,140.4694468873166,58.377072638997205,24.344812406942996,0.3169343025770406,False,False
375,Mg2Au,"[Element Au, Element Mg]",Mg2 Au1,crystal_system=<CrystalSystem.ortho: 'Orthorhombic'> symbol='Pnma' number=62 point_group='mmm' symprec=0.1 version='1.16.2',ortho,7.137959889335888,228.51878855487993,58.41650591051461,22.543284697693245,0.32903863724445886,True,True
376,Cu3SbSe4,"[Element Cu, Element Sb, Element Se]",Cu3 Sb1 Se4,crystal_system=<CrystalSystem.tet: 'Tetragonal'> symbol='I-42m' number=121 point_group='-42m' symprec=0.1 version='1.16.2',tet,5.776265299223621,180.6035021041827,58.4167475108584,20.616982444152626,0.3421100126889357,True,True
377,Sn2Au,"[Element Au, Element Sn]",Sn2 Au1,crystal_system=<CrystalSystem.ortho: 'Orthorhombic'> symbol='Pbca' number=61 point_group='mmm' symprec=0.1 version='1.16.2',ortho,9.753401262895693,591.6425241929887,58.42845280997578,17.956180801796688,0.3606186262551086,True,True
378,YMgZn2,"[Element Mg, Element Y, Element Zn]",Y1 Mg1 Zn2,crystal_system=<CrystalSystem.cubic: 'Cubic'> symbol='Fm-3m' number=225 point_group='m-3m' symprec=0.1 version='1.16.2',cubic,5.1822670601720455,78.1934690160523,58.611884258252545,35.15298068175003,0.2500838307789956,True,False
379,CuF2,"[Element Cu, Element F]",Cu1 F2,crystal_system=<CrystalSystem.mono: 'Monoclinic'> symbol='P2_1/c' number=14 point_group='2/m' symprec=0.1 version='1.16.2',mono,4.952617617703766,68.09158710604335,58.64687292115674,20.675306874641937,0.3422662853412759,True,True
380,BaAsPd,"[Element As, Element Ba, Element Pd]",Ba1 As1 Pd1,crystal_system=<CrystalSystem.hex_: 'Hexagonal'> symbol='P-6m2' number=187 point_group='-6m2' symprec=0.1 version='1.16.2',hex_,6.677456715640397,79.24598872491228,58.70468899707596,24.573499815854767,0.3163301777473078,True,True
381,Ca2AuN,"[Element Au, Element Ca, Element N]",Ca2 Au1 N1,crystal_system=<CrystalSystem.ortho: 'Orthorhombic'> symbol='Cmcm' number=63 point_group='mmm' symprec=0.1 version='1.16.2',ortho,6.105250701284845,158.36582255449807,58.788965890046015,31.416717747582982,0.2732011904469183,True,True
382,SrSO4,"[Element O, Element S, Element Sr]",Sr1 S1 O4,crystal_system=<CrystalSystem.ortho: 'Orthorhombic'> symbol='Pnma' number=62 point_group='mmm' symprec=0.1 version='1.16.2',ortho,3.977668031930241,306.7245740028718,58.93062841864068,24.456089977266718,0.31771675007714406,False,True
383,Ge,[Element Ge],Ge1,crystal_system=<CrystalSystem.cubic: 'Cubic'> symbol='Fd-3m' number=227 point_group='m-3m' symprec=0.1 version='1.16.2',cubic,5.280205104250077,45.68820923290832,58.97784212555779,45.357767133733525,0.19393020470495828,True,True
384,Sr3ReN3,"[Element N, Element Re, Element Sr]",Sr3 Re1 N3,crystal_system=<CrystalSystem.hex_: 'Hexagonal'> symbol='P6_3/m' number=176 point_group='6/m' symprec=0.1 version='1.16.2',hex_,5.659121138831412,288.1964512325998,59.006524773249595,25.10739997058624,0.313676031672136,True,False
385,Sr(AlSi)2,"[Element Al, Element Si, Element Sr]",Sr1 Al2 Si2,crystal_system=<CrystalSystem.trig: 'Trigonal'> symbol='P-3m1' number=164 point_group='-3m' symprec=0.1 version='1.16.2',trig,2.9027450075970607,113.12684025313999,59.046174184869386,38.34701279418703,0.23306552062450464,True,True
386,Hg4Pt,"[Element Hg, Element Pt]",Hg4 Pt1,crystal_system=<CrystalSystem.cubic: 'Cubic'> symbol='Im-3m' number=229 point_group='m-3m' symprec=0.1 version='1.16.2',cubic,13.222952239112601,125.25907216442648,59.048007735356606,27.809495694335883,0.2964697373077343,True,True
387,BaNiF4,"[Element Ba, Element F, Element Ni]",Ba1 Ni1 F4,crystal_system=<CrystalSystem.ortho: 'Orthorhombic'> symbol='Cmc2_1' number=36 point_group='mm2' symprec=0.1 version='1.16.2',ortho,5.170532516049456,174.71697296747527,59.1194235596845,26.95727399592112,0.30209087341735463,False,True
388,Sn4Pt,"[Element Pt, Element Sn]",Sn4 Pt1,crystal_system=<CrystalSystem.ortho: 'Orthorhombic'> symbol='Ccce' number=68 point_group='mmm' symprec=0.1 version='1.16.2',ortho,9.294092323020099,239.38539342838254,59.223692480340816,29.067799385919425,0.28909772681324236,True,True
389,MgSc2Cd,"[Element Cd, Element Mg, Element Sc]",Mg1 Sc2 Cd1,crystal_system=<CrystalSystem.cubic: 'Cubic'> symbol='Fm-3m' number=225 point_group='m-3m' symprec=0.1 version='1.16.2',cubic,4.203375097648799,89.52909188167622,59.234176083817935,31.751176793524618,0.2726143580030753,True,False
390,CaIn2Pd,"[Element Ca, Element In, Element Pd]",Ca1 In2 Pd1,crystal_system=<CrystalSystem.ortho: 'Orthorhombic'> symbol='Cmcm' number=63 point_group='mmm' symprec=0.1 version='1.16.2',ortho,6.826145985930727,182.99790322792632,59.35317650942357,25.154280883332,0.31432649066235074,True,True
391,YbTaO4,"[Element O, Element Ta, Element Yb]",Yb1 Ta1 O4,crystal_system=<CrystalSystem.mono: 'Monoclinic'> symbol='P2/c' number=13 point_group='2/m' symprec=0.1 version='1.16.2',mono,9.282421419783484,149.5474483268489,59.40704068943295,36.84352006795943,0.24302944662133358,True,True
392,CdSiAs2,"[Element As, Element Cd, Element Si]",Cd1 Si1 As2,crystal_system=<CrystalSystem.tet: 'Tetragonal'> symbol='I-42d' number=122 point_group='-42m' symprec=0.1 version='1.16.2',tet,5.019279734997139,192.1074097836465,59.410531487746724,30.76685754549033,0.2791835974157949,False,True
393,Mg3Pd,"[Element Mg, Element Pd]",Mg3 Pd1,crystal_system=<CrystalSystem.hex_: 'Hexagonal'> symbol='P6_3cm' number=185 point_group='6mm' symprec=0.1 version='1.16.2',hex_,3.885391569922302,459.8652694065521,59.412401202407025,20.526452781047844,0.345094019042261,True,True
394,YHg3,"[Element Hg, Element Y]",Y1 Hg3,crystal_system=<CrystalSystem.hex_: 'Hexagonal'> symbol='P6_3/mmc' number=194 point_group='6/mmm' symprec=0.1 version='1.16.2',hex_,12.201776773759956,187.98806969630343,59.43649422852174,18.856957743575116,0.3565403090211583,True,True
395,InP,"[Element In, Element P]",In1 P1,crystal_system=<CrystalSystem.cubic: 'Cubic'> symbol='F-43m' number=216 point_group='-43m' symprec=0.1 version='1.16.2',cubic,4.705583122405697,51.44801613145897,59.46441796557683,31.28191482257725,0.27621159186149724,False,True
396,Li2InPd,"[Element In, Element Li, Element Pd]",Li2 In1 Pd1,crystal_system=<CrystalSystem.cubic: 'Cubic'> symbol='F-43m' number=216 point_group='-43m' symprec=0.1 version='1.16.2',cubic,6.107533739756828,63.925303072420974,59.496943347307635,18.411705562477408,0.3597399558165013,True,True
397,SrAg5,"[Element Ag, Element Sr]",Sr1 Ag5,crystal_system=<CrystalSystem.hex_: 'Hexagonal'> symbol='P6/mmm' number=191 point_group='6/mmm' symprec=0.1 version='1.16.2',hex_,8.005697189220452,130.04404352645494,59.49802863644258,22.852350629388425,0.3297535008150425,True,True
398,GaCuSe2,"[Element Cu, Element Ga, Element Se]",Ga1 Cu1 Se2,crystal_system=<CrystalSystem.tet: 'Tetragonal'> symbol='I-42d' number=122 point_group='-42m' symprec=0.1 version='1.16.2',tet,5.545702568288753,174.38032577841304,59.54592395691094,28.399564353196986,0.29424316740763906,False,True
399,Ti3Te4,"[Element Te, Element Ti]",Ti3 Te4,crystal_system=<CrystalSystem.mono: 'Monoclinic'> symbol='C2/m' number=12 point_group='2/m' symprec=0.1 version='1.16.2',mono,6.191629014074407,175.39717053894142,59.54604186896993,37.66937024624896,0.23877902313782293,True,True
400,YMgCu,"[Element Cu, Element Mg, Element Y]",Y1 Mg1 Cu1,crystal_system=<CrystalSystem.hex_: 'Hexagonal'> symbol='P-62m' number=189 point_group='-6m2' symprec=0.1 version='1.16.2',hex_,4.5994712919171965,191.44264813433273,59.58493200930519,21.52437122841241,0.33879223543357084,True,True
401,Ca3AsN,"[Element As, Element Ca, Element N]",Ca3 As1 N1,crystal_system=<CrystalSystem.ortho: 'Orthorhombic'> symbol='Pnma' number=62 point_group='mmm' symprec=0.1 version='1.16.2',ortho,3.229329942502832,430.20958105101334,59.661034877957,44.927363766763506,0.19902682026654953,False,True
402,YMgGa,"[Element Ga, Element Mg, Element Y]",Y1 Mg1 Ga1,crystal_system=<CrystalSystem.hex_: 'Hexagonal'> symbol='P-62m' number=189 point_group='-6m2' symprec=0.1 version='1.16.2',hex_,4.508719872914436,202.12087671717887,59.68700255906231,47.69033664279633,0.18452004031673483,True,True
403,Yb(ZnAs)2,"[Element As, Element Yb, Element Zn]",Yb1 Zn2 As2,crystal_system=<CrystalSystem.trig: 'Trigonal'> symbol='P-3m1' number=164 point_group='-3m' symprec=0.1 version='1.16.2',trig,7.413630613001115,101.6220805285469,59.71314570771056,38.2676435266732,0.23597242040855618,False,True
404,SrCO3,"[Element C, Element O, Element Sr]",Sr1 C1 O3,crystal_system=<CrystalSystem.ortho: 'Orthorhombic'> symbol='Pnma' number=62 point_group='mmm' symprec=0.1 version='1.16.2',ortho,3.7940934270624274,258.4475691195478,59.765220774270915,29.56781832679181,0.2876520713326929,False,True
405,Bi3BrO4,"[Element Bi, Element Br, Element O]",Bi3 Br1 O4,crystal_system=<CrystalSystem.tet: 'Tetragonal'> symbol='P4/mmm' number=123 point_group='4/mmm' symprec=0.1 version='1.16.2',tet,8.837934474295418,144.8318707646196,59.79841066318468,28.92824851523933,0.2917067597578826,False,False
406,YZn,"[Element Y, Element Zn]",Y1 Zn1,crystal_system=<CrystalSystem.cubic: 'Cubic'> symbol='Pm-3m' number=221 point_group='m-3m' symprec=0.1 version='1.16.2',cubic,5.668145851410791,45.2080528093221,59.804960899356196,29.317758052747187,0.2893159549894263,True,True
407,NaMnF3,"[Element F, Element Mn, Element Na]",Na1 Mn1 F3,crystal_system=<CrystalSystem.ortho: 'Orthorhombic'> symbol='Pnma' number=62 point_group='mmm' symprec=0.1 version='1.16.2',ortho,3.589730569614404,249.65099501672162,59.86629428209389,27.254720497238175,0.302362249992016,False,True
408,LiBO2,"[Element B, Element Li, Element O]",Li1 B1 O2,crystal_system=<CrystalSystem.mono: 'Monoclinic'> symbol='P2_1/c' number=14 point_group='2/m' symprec=0.1 version='1.16.2',mono,2.2482868263035036,146.9797287927551,59.90374249667995,29.44943403859924,0.2888027761288642,False,True
409,NaCrS2,"[Element Cr, Element Na, Element S]",Na1 Cr1 S2,crystal_system=<CrystalSystem.trig: 'Trigonal'> symbol='R-3m' number=166 point_group='-3m' symprec=0.1 version='1.16.2',trig,3.2433522661926566,71.22486759498263,59.91196261137932,36.59051596557114,0.24628259433751787,False,True
410,Cu2GeSe3,"[Element Cu, Element Ge, Element Se]",Cu2 Ge1 Se3,crystal_system=<CrystalSystem.ortho: 'Orthorhombic'> symbol='Imm2' number=44 point_group='mm2' symprec=0.1 version='1.16.2',ortho,5.604291704268389,129.36715667283516,59.920550614055756,25.80844997239256,0.3116813942452066,True,True