,Formula,Elements,Composition,Symmetry,Crystal system,Density [g/m$^3$],Volume [$\mathring{A}^3$],Bulk modulus[GPa],Shear modulus [GPa],Poisson,Metal,Experimental report
1374,Hf5Sn4,"[Element Hf, Element Sn]",Hf5 Sn4,crystal_system=<CrystalSystem.hex_: 'Hexagonal'> symbol='P6_3/mcm' number=193 point_group='6/mmm' symprec=0.1 version='1.16.2',hex_,11.734523715364956,386.9672967465473,111.70078484827388,63.49711735178271,0.26104916653682736,True,True
1375,Li2MnO3,"[Element Li, Element Mn, Element O]",Li2 Mn1 O3,crystal_system=<CrystalSystem.mono: 'Monoclinic'> symbol='C2/m' number=12 point_group='2/m' symprec=0.1 version='1.16.2',mono,3.9695882994693674,195.46738339598636,111.7331629902238,78.55746201873222,0.2152043180269952,False,True
1376,LiNbN2,"[Element Li, Element N, Element Nb]",Li1 Nb1 N2,crystal_system=<CrystalSystem.ortho: 'Orthorhombic'> symbol='Pnma' number=62 point_group='mmm' symprec=0.1 version='1.16.2',ortho,4.431310932334379,191.65237873669187,111.76963589321058,58.301614270255754,0.2778199094573045,False,False
1377,Ti2CdC,"[Element C, Element Cd, Element Ti]",Ti2 Cd1 C1,crystal_system=<CrystalSystem.hex_: 'Hexagonal'> symbol='P6_3/mmc' number=194 point_group='6/mmm' symprec=0.1 version='1.16.2',hex_,6.112064042614337,119.62477422873985,111.78850235309417,53.373503929237614,0.2940513979024845,True,True
1378,Zr3Ga2,"[Element Ga, Element Zr]",Zr3 Ga2,crystal_system=<CrystalSystem.tet: 'Tetragonal'> symbol='P4/mbm' number=127 point_group='4/mmm' symprec=0.1 version='1.16.2',tet,6.8866902031973325,199.2244628042555,111.81671007024555,66.65518915141436,0.2513517506166753,True,True
1379,HfGeSe,"[Element Ge, Element Hf, Element Se]",Hf1 Ge1 Se1,crystal_system=<CrystalSystem.tet: 'Tetragonal'> symbol='P4/nmm' number=129 point_group='4/mmm' symprec=0.1 version='1.16.2',tet,9.74846540355531,112.4540771912858,111.8432058374939,73.85522410479898,0.22939194397245077,True,True
1380,SmF3,"[Element F, Element Sm]",Sm1 F3,crystal_system=<CrystalSystem.ortho: 'Orthorhombic'> symbol='Pnma' number=62 point_group='mmm' symprec=0.1 version='1.16.2',ortho,6.739734971592534,204.35309557727106,111.85855202896488,47.767218940637434,0.3130894479105419,False,True
1381,Ca(BeN)2,"[Element Be, Element Ca, Element N]",Ca1 Be2 N2,crystal_system=<CrystalSystem.tet: 'Tetragonal'> symbol='I4/mcm' number=140 point_group='4/mmm' symprec=0.1 version='1.16.2',tet,2.705681996929731,105.70243697106558,111.87141206173867,62.69313978184339,0.263901661513438,False,True
1382,Sc4C3,"[Element C, Element Sc]",Sc4 C3,crystal_system=<CrystalSystem.cubic: 'Cubic'> symbol='I-43d' number=220 point_group='-43m' symprec=0.1 version='1.16.2',cubic,3.8183251565644816,187.74561495263885,111.89057408170441,66.47396549475881,0.25205267324254826,False,True
1383,Sc2Al3Ru,"[Element Al, Element Ru, Element Sc]",Sc2 Al3 Ru1,crystal_system=<CrystalSystem.hex_: 'Hexagonal'> symbol='P6_3/mmc' number=194 point_group='6/mmm' symprec=0.1 version='1.16.2',hex_,4.384114536373169,205.9911860345239,111.94891320433655,67.44384969354792,0.2491491812038747,True,True
1384,Zn2CuAu,"[Element Au, Element Cu, Element Zn]",Zn2 Cu1 Au1,crystal_system=<CrystalSystem.ortho: 'Orthorhombic'> symbol='Pmmn' number=59 point_group='mmm' symprec=0.1 version='1.16.2',ortho,11.481757903781082,113.19167382292798,112.01091713554919,26.3918253401737,0.39076971996323706,True,True
1385,ScInCu4,"[Element Cu, Element In, Element Sc]",Sc1 In1 Cu4,crystal_system=<CrystalSystem.cubic: 'Cubic'> symbol='F-43m' number=216 point_group='-43m' symprec=0.1 version='1.16.2',cubic,7.975080582521455,86.19264441173006,112.04667507075226,57.49651931828134,0.2809025097497492,True,True
1386,MnCuO2,"[Element Cu, Element Mn, Element O]",Mn1 Cu1 O2,crystal_system=<CrystalSystem.mono: 'Monoclinic'> symbol='C2/m' number=12 point_group='2/m' symprec=0.1 version='1.16.2',mono,5.435675009466814,45.97085781258352,112.04741880151155,41.26115022354706,0.33600644761452086,False,True
1387,ScCuSi,"[Element Cu, Element Sc, Element Si]",Sc1 Cu1 Si1,crystal_system=<CrystalSystem.hex_: 'Hexagonal'> symbol='P-62m' number=189 point_group='-6m2' symprec=0.1 version='1.16.2',hex_,4.891050745668054,139.11656948111084,112.13474378428722,76.1725547222504,0.2230604436804787,True,True
1388,YSiNi,"[Element Ni, Element Si, Element Y]",Y1 Si1 Ni1,crystal_system=<CrystalSystem.ortho: 'Orthorhombic'> symbol='Pnma' number=62 point_group='mmm' symprec=0.1 version='1.16.2',ortho,5.731278157166702,203.6065134378847,112.1681286936832,61.819200467755394,0.267202335405083,True,True
1389,Ca(PPd)2,"[Element Ca, Element P, Element Pd]",Ca1 P2 Pd2,crystal_system=<CrystalSystem.tet: 'Tetragonal'> symbol='I4/mmm' number=139 point_group='4/mmm' symprec=0.1 version='1.16.2',tet,6.261965280865188,83.49559281734639,112.31028055027816,45.759083353427876,0.32064167215957584,True,True
1390,LiMnPd2,"[Element Li, Element Mn, Element Pd]",Li1 Mn1 Pd2,crystal_system=<CrystalSystem.cubic: 'Cubic'> symbol='Fm-3m' number=225 point_group='m-3m' symprec=0.1 version='1.16.2',cubic,8.066045334221183,56.55580741979426,112.38348785752854,33.59634264089829,0.3640729653856298,True,False
1391,Hf6CoBi2,"[Element Bi, Element Co, Element Hf]",Hf6 Co1 Bi2,crystal_system=<CrystalSystem.hex_: 'Hexagonal'> symbol='P-62m' number=189 point_group='-6m2' symprec=0.1 version='1.16.2',hex_,13.488321372535351,190.5529047181896,112.43580646393515,59.48739982235416,0.2751203004357497,True,True
1392,MgSnPd2,"[Element Mg, Element Pd, Element Sn]",Mg1 Sn1 Pd2,crystal_system=<CrystalSystem.cubic: 'Cubic'> symbol='Fm-3m' number=225 point_group='m-3m' symprec=0.1 version='1.16.2',cubic,8.838714084905616,66.85487547946325,112.47654642602144,26.019576368927815,0.39261398051468127,True,False
1393,Sc2AgRu,"[Element Ag, Element Ru, Element Sc]",Sc2 Ag1 Ru1,crystal_system=<CrystalSystem.cubic: 'Cubic'> symbol='Fm-3m' number=225 point_group='m-3m' symprec=0.1 version='1.16.2',cubic,6.929997067338367,71.60928570160927,112.49907873679564,38.20746262278796,0.347456808200235,True,False
1394,Sc(MnSn)6,"[Element Mn, Element Sc, Element Sn]",Sc1 Mn6 Sn6,crystal_system=<CrystalSystem.hex_: 'Hexagonal'> symbol='P6/mmm' number=191 point_group='6/mmm' symprec=0.1 version='1.16.2',hex_,7.287399157629232,247.65313172512543,112.52642299970618,70.17766015947024,0.2418400946455429,True,True
1395,Zn3Pd,"[Element Pd, Element Zn]",Zn3 Pd1,crystal_system=<CrystalSystem.tet: 'Tetragonal'> symbol='I4/mmm' number=139 point_group='4/mmm' symprec=0.1 version='1.16.2',tet,9.02782855630473,55.66755768066966,112.5456779683813,23.984988549285273,0.4005108079985319,True,False
1396,AlCu,"[Element Al, Element Cu]",Al1 Cu1,crystal_system=<CrystalSystem.mono: 'Monoclinic'> symbol='C2/m' number=12 point_group='2/m' symprec=0.1 version='1.16.2',mono,5.511280106531164,136.37894603678083,112.6149615427999,66.76106868543508,0.2524959724196712,True,True
1397,VZn3,"[Element V, Element Zn]",V1 Zn3,crystal_system=<CrystalSystem.cubic: 'Cubic'> symbol='Pm-3m' number=221 point_group='m-3m' symprec=0.1 version='1.16.2',cubic,7.566219757697954,54.24544401652399,112.62362145094079,65.34994923573299,0.2568951786461508,True,True
1398,HfGe2,"[Element Ge, Element Hf]",Hf1 Ge2,crystal_system=<CrystalSystem.ortho: 'Orthorhombic'> symbol='Cmcm' number=63 point_group='mmm' symprec=0.1 version='1.16.2',ortho,10.106755289901962,106.39076898008028,112.65903952724028,70.52292978450005,0.24104190415685287,True,True
1399,LiGaPd2,"[Element Ga, Element Li, Element Pd]",Li1 Ga1 Pd2,crystal_system=<CrystalSystem.cubic: 'Cubic'> symbol='Fm-3m' number=225 point_group='m-3m' symprec=0.1 version='1.16.2',cubic,8.881265541449245,54.1288513099137,112.68322553983171,-101.64859447605559,1.1449754389092361,True,False
1400,Sc2GaRu,"[Element Ga, Element Ru, Element Sc]",Sc2 Ga1 Ru1,crystal_system=<CrystalSystem.cubic: 'Cubic'> symbol='Fm-3m' number=225 point_group='m-3m' symprec=0.1 version='1.16.2',cubic,6.209244372051217,69.7203265266343,112.74014844779057,37.963866396039215,0.34862260913871895,True,False
1401,ScSiAu,"[Element Au, Element Sc, Element Si]",Sc1 Si1 Au1,crystal_system=<CrystalSystem.hex_: 'Hexagonal'> symbol='P-6m2' number=187 point_group='-6m2' symprec=0.1 version='1.16.2',hex_,8.418515594249584,106.51730598457286,112.80630292816058,62.93362764029109,0.264794207353588,True,True
1402,Ca3Al3N5,"[Element Al, Element Ca, Element N]",Ca3 Al3 N5,crystal_system=<CrystalSystem.tri: 'Triclinic'> symbol='P-1' number=2 point_group='-1' symprec=0.1 version='1.16.2',tri,3.0931038653943683,291.20154590329133,112.8890421752682,58.34910905349299,0.27954638693167994,False,False
1403,Sc2CuPt,"[Element Cu, Element Pt, Element Sc]",Sc2 Cu1 Pt1,crystal_system=<CrystalSystem.cubic: 'Cubic'> symbol='Fm-3m' number=225 point_group='m-3m' symprec=0.1 version='1.16.2',cubic,8.338168978780306,69.41179970913501,112.92990116768058,41.15222690524947,0.3375321715833259,True,False
1404,YAl3Ni2,"[Element Al, Element Ni, Element Y]",Y1 Al3 Ni2,crystal_system=<CrystalSystem.hex_: 'Hexagonal'> symbol='P6/mmm' number=191 point_group='6/mmm' symprec=0.1 version='1.16.2',hex_,5.076719466768351,281.8564455056772,113.01160691763573,68.09838558597593,0.24910526385818818,True,True
1405,CdInPd2,"[Element Cd, Element In, Element Pd]",Cd1 In1 Pd2,crystal_system=<CrystalSystem.cubic: 'Cubic'> symbol='Fm-3m' number=225 point_group='m-3m' symprec=0.1 version='1.16.2',cubic,10.581944568377418,69.05647272839997,113.01248488327042,23.985479832653397,0.4008927086100727,True,False
1406,Ti,[Element Ti],Ti1,crystal_system=<CrystalSystem.hex_: 'Hexagonal'> symbol='P6/mmm' number=191 point_group='6/mmm' symprec=0.1 version='1.16.2',hex_,4.670172247408194,51.05915967771039,113.07838514256369,60.783385541789954,0.27207286919322815,True,True
1407,Zr6FeSb2,"[Element Fe, Element Sb, Element Zr]",Zr6 Fe1 Sb2,crystal_system=<CrystalSystem.hex_: 'Hexagonal'> symbol='P-62m' number=189 point_group='-6m2' symprec=0.1 version='1.16.2',hex_,7.267795999174671,193.45526108623352,113.17697002976415,58.116858519407,0.28077259660195825,True,True
1408,Zr2SbP,"[Element P, Element Sb, Element Zr]",Zr2 Sb1 P1,crystal_system=<CrystalSystem.hex_: 'Hexagonal'> symbol='P6_3/mmc' number=194 point_group='6/mmm' symprec=0.1 version='1.16.2',hex_,6.526898870539063,170.55033983293652,113.23828231117042,66.4723136353573,0.25452579467703174,True,True
1409,Al3Ni,"[Element Al, Element Ni]",Al3 Ni1,crystal_system=<CrystalSystem.ortho: 'Orthorhombic'> symbol='Pnma' number=62 point_group='mmm' symprec=0.1 version='1.16.2',ortho,4.058169020834075,228.55073726894787,113.24143738786805,65.77569518446066,0.25668670532969384,True,True
1410,CaPd5,"[Element Ca, Element Pd]",Ca1 Pd5,crystal_system=<CrystalSystem.hex_: 'Hexagonal'> symbol='P6/mmm' number=191 point_group='6/mmm' symprec=0.1 version='1.16.2',hex_,8.811404423597937,107.8288858816326,113.4437953784959,49.438620558681514,0.30973925760221505,True,True
1411,ZrAl2,"[Element Al, Element Zr]",Zr1 Al2,crystal_system=<CrystalSystem.hex_: 'Hexagonal'> symbol='P6_3/mmc' number=194 point_group='6/mmm' symprec=0.1 version='1.16.2',hex_,4.578385553679134,210.63216352527073,113.46085283025604,87.42272226893245,0.1934724995200397,True,True
1412,Hf5Sn3,"[Element Hf, Element Sn]",Hf5 Sn3,crystal_system=<CrystalSystem.hex_: 'Hexagonal'> symbol='P6_3/mcm' number=193 point_group='6/mmm' symprec=0.1 version='1.16.2',hex_,11.90808988596708,348.2197208166353,113.4618970293904,46.68156960469827,0.3190951250134048,True,True
1413,TiFeSb,"[Element Fe, Element Sb, Element Ti]",Ti1 Fe1 Sb1,crystal_system=<CrystalSystem.cubic: 'Cubic'> symbol='F-43m' number=216 point_group='-43m' symprec=0.1 version='1.16.2',cubic,6.943428230102202,53.922219977914885,113.55241956246512,52.781933696944485,0.2987671231592126,True,True
1414,Zr6FeTe2,"[Element Fe, Element Te, Element Zr]",Zr6 Fe1 Te2,crystal_system=<CrystalSystem.hex_: 'Hexagonal'> symbol='P-62m' number=189 point_group='-6m2' symprec=0.1 version='1.16.2',hex_,7.430737408041388,191.82328624574757,113.62942950937196,59.8668620681289,0.2759222982696836,True,True
1415,Ga2Pt,"[Element Ga, Element Pt]",Ga2 Pt1,crystal_system=<CrystalSystem.cubic: 'Cubic'> symbol='Fm-3m' number=225 point_group='m-3m' symprec=0.1 version='1.16.2',cubic,10.62425612622749,52.2860261791286,113.66220724398693,22.022736376155674,0.40899930311329646,True,True
1416,NiSb,"[Element Ni, Element Sb]",Ni1 Sb1,crystal_system=<CrystalSystem.hex_: 'Hexagonal'> symbol='P6_3/mmc' number=194 point_group='6/mmm' symprec=0.1 version='1.16.2',hex_,8.759008263472381,68.4209699060164,113.66244464081885,49.54187118336493,0.3097125495264537,True,True
1417,LiMnPt2,"[Element Li, Element Mn, Element Pt]",Li1 Mn1 Pt2,crystal_system=<CrystalSystem.cubic: 'Cubic'> symbol='Fm-3m' number=225 point_group='m-3m' symprec=0.1 version='1.16.2',cubic,13.482511095703815,55.67522050122987,113.67623799657854,48.56584795490795,0.3130138891858742,True,False
1418,ScAlAu2,"[Element Al, Element Au, Element Sc]",Sc1 Al1 Au2,crystal_system=<CrystalSystem.cubic: 'Cubic'> symbol='Fm-3m' number=225 point_group='m-3m' symprec=0.1 version='1.16.2',cubic,11.011252621452817,70.25506896854472,113.86619064004454,22.942837037234057,0.4055957575456791,True,True
1419,MnAlGe,"[Element Al, Element Ge, Element Mn]",Mn1 Al1 Ge1,crystal_system=<CrystalSystem.tet: 'Tetragonal'> symbol='P4/nmm' number=129 point_group='4/mmm' symprec=0.1 version='1.16.2',tet,5.761466410981445,89.09267480794315,113.92276515721193,64.39053889418251,0.26219695309081703,True,True
1420,ZrGa,"[Element Ga, Element Zr]",Zr1 Ga1,crystal_system=<CrystalSystem.tet: 'Tetragonal'> symbol='I4_1/amd' number=141 point_group='4/mmm' symprec=0.1 version='1.16.2',tet,6.956969242766296,153.66391417064838,113.9281122531031,73.35320681931087,0.23495577085012914,True,True
1421,Pd3S,"[Element Pd, Element S]",Pd3 S1,crystal_system=<CrystalSystem.ortho: 'Orthorhombic'> symbol='Cmcm' number=63 point_group='mmm' symprec=0.1 version='1.16.2',ortho,9.224573992911777,126.48581669387112,113.9411084869138,38.22491362328533,0.34913133508230515,True,True
1422,LiScPt2,"[Element Li, Element Pt, Element Sc]",Li1 Sc1 Pt2,crystal_system=<CrystalSystem.cubic: 'Cubic'> symbol='Fm-3m' number=225 point_group='m-3m' symprec=0.1 version='1.16.2',cubic,11.766835480449048,62.38432223929399,113.99667572449704,72.83081988205771,0.2366423828538749,True,False
1423,ScPd,"[Element Pd, Element Sc]",Sc1 Pd1,crystal_system=<CrystalSystem.cubic: 'Cubic'> symbol='Pm-3m' number=221 point_group='m-3m' symprec=0.1 version='1.16.2',cubic,6.998013554362672,35.919566840721316,114.01813003571874,38.41804786722103,0.34853811722174627,True,True
1424,Hf3Sb,"[Element Hf, Element Sb]",Hf3 Sb1,crystal_system=<CrystalSystem.tet: 'Tetragonal'> symbol='I-4' number=82 point_group='-4' symprec=0.1 version='1.16.2',tet,12.326667137620747,354.1447427944965,114.03667117174811,48.757444339908176,0.3128875529541653,True,True
1425,LiZn2Ir,"[Element Ir, Element Li, Element Zn]",Li1 Zn2 Ir1,crystal_system=<CrystalSystem.cubic: 'Cubic'> symbol='Fm-3m' number=225 point_group='m-3m' symprec=0.1 version='1.16.2',cubic,10.232138819584101,53.5506846321963,114.11652510068507,39.86745083427345,0.3435413072622244,True,False
1426,Li2SnN2,"[Element Li, Element N, Element Sn]",Li2 Sn1 N2,crystal_system=<CrystalSystem.trig: 'Trigonal'> symbol='P-3m1' number=164 point_group='-3m' symprec=0.1 version='1.16.2',trig,5.342798513560203,49.916076814434874,114.1263945959264,85.90789850896525,0.1991227307804623,False,False
1427,NaVO2,"[Element Na, Element O, Element V]",Na1 V1 O2,crystal_system=<CrystalSystem.trig: 'Trigonal'> symbol='R-3m' number=166 point_group='-3m' symprec=0.1 version='1.16.2',trig,4.23866795387433,41.49912667877256,114.17252380017433,50.3864993176308,0.3076381625715895,True,True
1428,CuBS2,"[Element B, Element Cu, Element S]",Cu1 B1 S2,crystal_system=<CrystalSystem.tet: 'Tetragonal'> symbol='I-42d' number=122 point_group='-42m' symprec=0.1 version='1.16.2',tet,4.097111183417321,112.25620366222348,114.22235008132097,63.259790694139326,0.2662394390528163,False,True
1429,Mg2SbN3,"[Element Mg, Element N, Element Sb]",Mg2 Sb1 N3,crystal_system=<CrystalSystem.ortho: 'Orthorhombic'> symbol='Cmc2_1' number=36 point_group='mm2' symprec=0.1 version='1.16.2',ortho,4.339000831823242,162.56372011843297,114.24388239822484,58.74718510822305,0.28050952983779864,False,False
1430,Ti2SbP,"[Element P, Element Sb, Element Ti]",Ti2 Sb1 P1,crystal_system=<CrystalSystem.hex_: 'Hexagonal'> symbol='P6_3/mmc' number=194 point_group='6/mmm' symprec=0.1 version='1.16.2',hex_,5.721299316148663,144.22962435372438,114.25237334135478,70.55312104733464,0.24394614249899513,True,True
1431,Ca(NiP)2,"[Element Ca, Element Ni, Element P]",Ca1 Ni2 P2,crystal_system=<CrystalSystem.tet: 'Tetragonal'> symbol='I4/mmm' number=139 point_group='4/mmm' symprec=0.1 version='1.16.2',tet,5.173497678963362,70.42483795382736,114.25240861061977,74.08602049059286,0.23340330755910912,True,True
1432,NaFeO2,"[Element Fe, Element Na, Element O]",Na1 Fe1 O2,crystal_system=<CrystalSystem.trig: 'Trigonal'> symbol='R-3m' number=166 point_group='-3m' symprec=0.1 version='1.16.2',trig,4.371676734888313,42.09905783092161,114.25417333685607,72.20015869542337,0.23901210012221927,False,True
1433,CaAl4O7,"[Element Al, Element Ca, Element O]",Ca1 Al4 O7,crystal_system=<CrystalSystem.mono: 'Monoclinic'> symbol='C2/c' number=15 point_group='2/m' symprec=0.1 version='1.16.2',mono,2.8959074073930333,298.17257312386346,114.36718396072116,46.33373865617829,0.32153490021874437,False,True
1434,ZnCu,"[Element Cu, Element Zn]",Zn1 Cu1,crystal_system=<CrystalSystem.cubic: 'Cubic'> symbol='Pm-3m' number=221 point_group='m-3m' symprec=0.1 version='1.16.2',cubic,8.595904802600606,24.911259518441693,114.40115003587282,31.95540707791339,0.3722324964510564,True,True
1435,MgNi2Sn,"[Element Mg, Element Ni, Element Sn]",Mg1 Ni2 Sn1,crystal_system=<CrystalSystem.cubic: 'Cubic'> symbol='Fm-3m' number=225 point_group='m-3m' symprec=0.1 version='1.16.2',cubic,7.576872557828488,57.069372437338004,114.49005725365335,45.2181165353855,0.3254972510224822,True,True
1436,RbMnN2,"[Element Mn, Element N, Element Rb]",Rb1 Mn1 N2,crystal_system=<CrystalSystem.cubic: 'Cubic'> symbol='Fd-3m' number=227 point_group='mmm' symprec=0.1 version='1.16.2',cubic,4.271856173623708,1047.4762240042082,114.49554157626858,37.01090605675677,0.35409534992114683,False,False
1437,MgRh,"[Element Mg, Element Rh]",Mg1 Rh1,crystal_system=<CrystalSystem.cubic: 'Cubic'> symbol='Pm-3m' number=221 point_group='m-3m' symprec=0.1 version='1.16.2',cubic,7.181663707723546,29.413519419538204,114.63651297885923,58.008662395216774,0.2835057150820757,True,True
1438,NiP3,"[Element Ni, Element P]",Ni1 P3,crystal_system=<CrystalSystem.cubic: 'Cubic'> symbol='Im-3' number=204 point_group='m-3' symprec=0.1 version='1.16.2',cubic,4.262920310840363,236.23440347507827,114.6560090478493,75.30257017315682,0.2305943799001646,True,True
1439,LiPt,"[Element Li, Element Pt]",Li1 Pt1,crystal_system=<CrystalSystem.hex_: 'Hexagonal'> symbol='P-6m2' number=187 point_group='-6m2' symprec=0.1 version='1.16.2',hex_,12.315461355315577,27.23977569748695,114.70717454861911,51.349725045578495,0.3052334074266276,True,True
1440,TiGa,"[Element Ga, Element Ti]",Ti1 Ga1,crystal_system=<CrystalSystem.tet: 'Tetragonal'> symbol='P4/mmm' number=123 point_group='4/mmm' symprec=0.1 version='1.16.2',tet,6.318919501192045,61.802587864795,114.71707604080308,71.62687501523564,0.24159218171408858,True,True
1441,HfAs2,"[Element As, Element Hf]",Hf1 As2,crystal_system=<CrystalSystem.ortho: 'Orthorhombic'> symbol='Pnma' number=62 point_group='mmm' symprec=0.1 version='1.16.2',ortho,9.711960234105439,224.55203370671956,114.73000689144966,74.87347762864738,0.23199713910237255,True,True
1442,ZrCdCu2,"[Element Cd, Element Cu, Element Zr]",Zr1 Cd1 Cu2,crystal_system=<CrystalSystem.cubic: 'Cubic'> symbol='Fm-3m' number=225 point_group='m-3m' symprec=0.1 version='1.16.2',cubic,8.556022585492096,64.18696285475407,114.93102495039884,50.95756894189733,0.30685728599140727,True,True