,Formula,Elements,Composition,Symmetry,Crystal system,Density [g/m$^3$],Volume [$\mathring{A}^3$],Bulk modulus[GPa],Shear modulus [GPa],Poisson,Metal,Experimental report
1993,VOF,"[Element F, Element O, Element V]",V1 O1 F1,crystal_system=<CrystalSystem.tet: 'Tetragonal'> symbol='P4_12_12' number=92 point_group='422' symprec=0.1 version='1.16.2',tet,4.34259899994952,131.4471544083543,149.5215031851974,64.74583946964891,0.3107991405415874,True,False
1994,ScPO4,"[Element O, Element P, Element Sc]",Sc1 P1 O4,crystal_system=<CrystalSystem.tet: 'Tetragonal'> symbol='I4_1/amd' number=141 point_group='4/mmm' symprec=0.1 version='1.16.2',tet,3.691625783490849,125.8820468742771,149.53460727001027,77.63470918536548,0.27870859521104324,False,True
1995,FeS2,"[Element Fe, Element S]",Fe1 S2,crystal_system=<CrystalSystem.ortho: 'Orthorhombic'> symbol='Pnnm' number=58 point_group='mmm' symprec=0.1 version='1.16.2',ortho,4.9392380950398245,80.66959748929806,149.86115375943734,124.83175851719591,0.1740204101095126,False,True
1996,Hf3ZnN,"[Element Hf, Element N, Element Zn]",Hf3 Zn1 N1,crystal_system=<CrystalSystem.ortho: 'Orthorhombic'> symbol='Cmcm' number=63 point_group='mmm' symprec=0.1 version='1.16.2',ortho,12.612695992814613,161.906974833195,149.91366837529262,89.55041829411861,0.2509220031920181,True,False
1997,MnCo2Sb,"[Element Co, Element Mn, Element Sb]",Mn1 Co2 Sb1,crystal_system=<CrystalSystem.cubic: 'Cubic'> symbol='Fm-3m' number=225 point_group='m-3m' symprec=0.1 version='1.16.2',cubic,9.174643806754544,53.313868336593664,150.01689344811365,73.4586244958723,0.2895205763774528,True,True
1998,Ti2AlMo,"[Element Al, Element Mo, Element Ti]",Ti2 Al1 Mo1,crystal_system=<CrystalSystem.cubic: 'Cubic'> symbol='Fm-3m' number=225 point_group='m-3m' symprec=0.1 version='1.16.2',cubic,5.7043598392850035,63.65062411968636,150.07871059344436,42.42288633371623,0.3708349443309223,True,False
1999,TiCdO3,"[Element Cd, Element O, Element Ti]",Ti1 Cd1 O3,crystal_system=<CrystalSystem.trig: 'Trigonal'> symbol='R-3' number=148 point_group='-3' symprec=0.1 version='1.16.2',trig,5.810462306526291,119.04414777961351,150.12380690149104,48.46210959580176,0.3542737005871584,False,True
2000,TiGePd,"[Element Ge, Element Pd, Element Ti]",Ti1 Ge1 Pd1,crystal_system=<CrystalSystem.ortho: 'Orthorhombic'> symbol='Pnma' number=62 point_group='mmm' symprec=0.1 version='1.16.2',ortho,8.108247570082876,185.89523593566673,150.25297701861854,68.65880436195506,0.30172373887062093,True,True
2001,Si2Ni,"[Element Ni, Element Si]",Si2 Ni1,crystal_system=<CrystalSystem.cubic: 'Cubic'> symbol='Fm-3m' number=225 point_group='m-3m' symprec=0.1 version='1.16.2',cubic,4.882255269184835,39.06735986654285,150.25753827173952,31.744207607156333,0.4013167848289998,True,True
2002,UO3,"[Element O, Element U]",U1 O3,crystal_system=<CrystalSystem.cubic: 'Cubic'> symbol='Pm-3m' number=221 point_group='m-3m' symprec=0.1 version='1.16.2',cubic,6.71581326426754,70.7225129067815,150.26757075921398,63.118997222538304,0.3157725309446686,False,True
2003,Yb(FeP3)4,"[Element Fe, Element P, Element Yb]",Yb1 Fe4 P12,crystal_system=<CrystalSystem.cubic: 'Cubic'> symbol='Im-3' number=204 point_group='m-3' symprec=0.1 version='1.16.2',cubic,5.470777268763544,233.14211787618405,150.3937057004306,108.43893261002303,0.2093413665236916,True,True
2004,Mg2PN3,"[Element Mg, Element N, Element P]",Mg2 P1 N3,crystal_system=<CrystalSystem.ortho: 'Orthorhombic'> symbol='Cmc2_1' number=36 point_group='mm2' symprec=0.1 version='1.16.2',ortho,3.128976839124482,129.06964409294676,150.42302239179628,86.91756459115972,0.25774881947775047,False,True
2005,MnCuPd2,"[Element Cu, Element Mn, Element Pd]",Mn1 Cu1 Pd2,crystal_system=<CrystalSystem.cubic: 'Cubic'> symbol='Fm-3m' number=225 point_group='m-3m' symprec=0.1 version='1.16.2',cubic,9.76875730058069,56.32001118440437,150.480021339825,36.92700384429159,0.386580178289399,True,False
2006,Y(SiRu)2,"[Element Ru, Element Si, Element Y]",Y1 Si2 Ru2,crystal_system=<CrystalSystem.tet: 'Tetragonal'> symbol='I4/mmm' number=139 point_group='4/mmm' symprec=0.1 version='1.16.2',tet,6.9595478387462615,82.84548901249578,150.51324188230728,80.03162075662954,0.2741649696750053,True,True
2007,HfZnNi2,"[Element Hf, Element Ni, Element Zn]",Hf1 Zn1 Ni2,crystal_system=<CrystalSystem.cubic: 'Cubic'> symbol='Fm-3m' number=225 point_group='m-3m' symprec=0.1 version='1.16.2',cubic,11.111216344094974,53.99311529260836,150.56515167303593,48.921237710913125,0.3534170801093442,True,False
2008,GaCuO2,"[Element Cu, Element Ga, Element O]",Ga1 Cu1 O2,crystal_system=<CrystalSystem.hex_: 'Hexagonal'> symbol='P6_3/mmc' number=194 point_group='6/mmm' symprec=0.1 version='1.16.2',hex_,6.267888091990467,87.56813597285675,150.61935573902025,58.717036546597356,0.32749735705745336,False,True
2009,CeNi5,"[Element Ce, Element Ni]",Ce1 Ni5,crystal_system=<CrystalSystem.hex_: 'Hexagonal'> symbol='P6/mmm' number=191 point_group='6/mmm' symprec=0.1 version='1.16.2',hex_,8.970381571418269,80.26208298737893,150.64557442896955,65.32469228955983,0.3105657304341232,True,True
2010,MnPd3,"[Element Mn, Element Pd]",Mn1 Pd3,crystal_system=<CrystalSystem.tet: 'Tetragonal'> symbol='I4/mmm' number=139 point_group='4/mmm' symprec=0.1 version='1.16.2',tet,10.384218333741561,119.67592598642084,150.70063325097578,52.61584882550508,0.3436279020094873,True,True
2011,YMn12,"[Element Mn, Element Y]",Y1 Mn12,crystal_system=<CrystalSystem.tet: 'Tetragonal'> symbol='I4/mmm' number=139 point_group='4/mmm' symprec=0.1 version='1.16.2',tet,7.034554187307448,176.60719409872783,150.7082654425629,88.17960210942812,0.25519465777671935,True,True
2012,P3Rh,"[Element P, Element Rh]",P3 Rh1,crystal_system=<CrystalSystem.cubic: 'Cubic'> symbol='Im-3' number=204 point_group='m-3' symprec=0.1 version='1.16.2',cubic,5.043841322057353,257.88125174967223,150.8848450839219,95.53573080188872,0.23858784973608568,True,True
2013,ZrNiH3,"[Element H, Element Ni, Element Zr]",Zr1 Ni1 H3,crystal_system=<CrystalSystem.ortho: 'Orthorhombic'> symbol='Cmcm' number=63 point_group='mmm' symprec=0.1 version='1.16.2',ortho,6.4428845179515335,78.83576680471417,150.93848761338873,65.55487252334615,0.3103049073669258,True,True
2014,Al3Ir,"[Element Al, Element Ir]",Al3 Ir1,crystal_system=<CrystalSystem.hex_: 'Hexagonal'> symbol='P6_3/mmc' number=194 point_group='6/mmm' symprec=0.1 version='1.16.2',hex_,7.421679604610374,122.23527791463933,150.9516298613363,48.97405064722712,0.3536133130604408,True,True
2015,Eu(FeP3)4,"[Element Eu, Element Fe, Element P]",Eu1 Fe4 P12,crystal_system=<CrystalSystem.cubic: 'Cubic'> symbol='Im-3' number=204 point_group='m-3' symprec=0.1 version='1.16.2',cubic,5.260580584622224,235.80497580949773,151.15071777985554,112.4420362677306,0.20195301966496637,True,True
2016,AsPd5,"[Element As, Element Pd]",As1 Pd5,crystal_system=<CrystalSystem.mono: 'Monoclinic'> symbol='C2/m' number=12 point_group='2/m' symprec=0.1 version='1.16.2',mono,11.07901789172406,181.96253330775718,151.1890175966124,43.903318212936895,0.3676203023173854,True,True
2017,ScMnRh2,"[Element Mn, Element Rh, Element Sc]",Sc1 Mn1 Rh2,crystal_system=<CrystalSystem.cubic: 'Cubic'> symbol='Fm-3m' number=225 point_group='m-3m' symprec=0.1 version='1.16.2',cubic,8.300631235928249,61.15619517640275,151.28212015986924,61.882936893282334,0.3200133174268588,True,False
2018,InRh,"[Element In, Element Rh]",In1 Rh1,crystal_system=<CrystalSystem.cubic: 'Cubic'> symbol='Pm-3m' number=221 point_group='m-3m' symprec=0.1 version='1.16.2',cubic,10.9337989513779,33.06612633674988,151.36513987836196,-1676.3550009766602,-1.557281889911629,True,True
2019,MgO,"[Element Mg, Element O]",Mg1 O1,crystal_system=<CrystalSystem.cubic: 'Cubic'> symbol='Fm-3m' number=225 point_group='m-3m' symprec=0.1 version='1.16.2',cubic,3.6289033819523207,18.4427700910204,151.49743407544798,118.71361923314655,0.1893430053961779,False,True
2020,ScNiP,"[Element Ni, Element P, Element Sc]",Sc1 Ni1 P1,crystal_system=<CrystalSystem.ortho: 'Orthorhombic'> symbol='Pnma' number=62 point_group='mmm' symprec=0.1 version='1.16.2',ortho,5.371971720814652,166.4542445572533,151.5600591242858,91.81523805550083,0.2479889982694544,True,True
2021,TaZn2,"[Element Ta, Element Zn]",Ta1 Zn2,crystal_system=<CrystalSystem.hex_: 'Hexagonal'> symbol='P6_3/mmc' number=194 point_group='6/mmm' symprec=0.1 version='1.16.2',hex_,11.813800842618756,350.57264314482524,151.57994596613995,89.13095596892303,0.2541761104642165,True,True
2022,LiHfRh2,"[Element Hf, Element Li, Element Rh]",Li1 Hf1 Rh2,crystal_system=<CrystalSystem.cubic: 'Cubic'> symbol='Fm-3m' number=225 point_group='m-3m' symprec=0.1 version='1.16.2',cubic,11.007513660055947,59.02083300175665,151.73362649517065,57.44115911955625,0.3319261157087585,True,False
2023,Zr2NiP,"[Element Ni, Element P, Element Zr]",Zr2 Ni1 P1,crystal_system=<CrystalSystem.mono: 'Monoclinic'> symbol='P2_1/m' number=11 point_group='2/m' symprec=0.1 version='1.16.2',mono,6.76940158720821,133.5000889795164,151.77961483403044,83.48307786076339,0.267595542063309,True,True
2024,NiWO4,"[Element Ni, Element O, Element W]",Ni1 W1 O4,crystal_system=<CrystalSystem.mono: 'Monoclinic'> symbol='P2/c' number=13 point_group='2/m' symprec=0.1 version='1.16.2',mono,7.979272084206349,127.58223939536019,151.88079220495666,73.4631816005899,0.29173385973765964,False,True
2025,CoGe,"[Element Co, Element Ge]",Co1 Ge1,crystal_system=<CrystalSystem.mono: 'Monoclinic'> symbol='C2/m' number=12 point_group='2/m' symprec=0.1 version='1.16.2',mono,8.432408064668785,103.63940110076325,151.9091710187683,82.28181511600084,0.2705937123928951,True,True
2026,SmMn2O5,"[Element Mn, Element O, Element Sm]",Sm1 Mn2 O5,crystal_system=<CrystalSystem.ortho: 'Orthorhombic'> symbol='Pbam' number=55 point_group='mmm' symprec=0.1 version='1.16.2',ortho,6.242392981473685,362.0216409775965,151.99068550963779,75.17107911638001,0.28770954360997175,True,True
2027,Ga4GeO8,"[Element Ga, Element Ge, Element O]",Ga4 Ge1 O8,crystal_system=<CrystalSystem.mono: 'Monoclinic'> symbol='C2/m' number=12 point_group='2/m' symprec=0.1 version='1.16.2',mono,5.607684262319922,141.9968764018625,152.04865276319953,72.20595400524451,0.29500607741261337,False,True
2028,As2Ir,"[Element As, Element Ir]",As2 Ir1,crystal_system=<CrystalSystem.mono: 'Monoclinic'> symbol='P2_1/c' number=14 point_group='2/m' symprec=0.1 version='1.16.2',mono,10.710256626582213,212.13472096243026,152.05604402194268,96.23429121294635,0.23868428027048794,False,True
2029,GePd2,"[Element Ge, Element Pd]",Ge1 Pd2,crystal_system=<CrystalSystem.hex_: 'Hexagonal'> symbol='P-62m' number=189 point_group='-6m2' symprec=0.1 version='1.16.2',hex_,10.47956389368497,135.70718138909376,152.089924851803,38.418744940412495,0.3835062566858184,True,True
2030,VP2,"[Element P, Element V]",V1 P2,crystal_system=<CrystalSystem.mono: 'Monoclinic'> symbol='C2/m' number=12 point_group='2/m' symprec=0.1 version='1.16.2',mono,4.584394690442164,81.78032093666212,152.16419229572517,124.47242052806146,0.1786232705536911,True,True
2031,Zn2CrN3,"[Element Cr, Element N, Element Zn]",Zn2 Cr1 N3,crystal_system=<CrystalSystem.ortho: 'Orthorhombic'> symbol='Cmc2_1' number=36 point_group='mm2' symprec=0.1 version='1.16.2',ortho,5.488164780836998,136.05494277845602,152.18571270630434,59.758688442488705,0.32638914390691637,True,False
2032,Ba(Si3N4)2,"[Element Ba, Element N, Element Si]",Ba1 Si6 N8,crystal_system=<CrystalSystem.ortho: 'Orthorhombic'> symbol='Imm2' number=44 point_group='mm2' symprec=0.1 version='1.16.2',ortho,3.8536331568598476,180.07127825513237,152.25577656340087,103.64479384227792,0.22258417647453652,False,True
2033,Gd(PdO2)2,"[Element Gd, Element O, Element Pd]",Gd1 Pd2 O4,crystal_system=<CrystalSystem.tet: 'Tetragonal'> symbol='I4_1/a' number=88 point_group='4/m' symprec=0.1 version='1.16.2',tet,8.51459336893298,169.31387956979202,152.25944576653748,52.41661001935453,0.3455897580229129,True,True
2034,ScGeRu,"[Element Ge, Element Ru, Element Sc]",Sc1 Ge1 Ru1,crystal_system=<CrystalSystem.hex_: 'Hexagonal'> symbol='P-62m' number=189 point_group='-6m2' symprec=0.1 version='1.16.2',hex_,7.489748902644328,145.44010518758003,152.27820949145752,83.48278253280517,0.2682396101843472,True,True
2035,LiCo2Ge,"[Element Co, Element Ge, Element Li]",Li1 Co2 Ge1,crystal_system=<CrystalSystem.cubic: 'Cubic'> symbol='Fm-3m' number=225 point_group='m-3m' symprec=0.1 version='1.16.2',cubic,7.708826229616002,42.53165072441102,152.2965063930462,93.72027540007073,0.244682324063012,True,True
2036,ScNi4Sn,"[Element Ni, Element Sc, Element Sn]",Sc1 Ni4 Sn1,crystal_system=<CrystalSystem.cubic: 'Cubic'> symbol='F-43m' number=216 point_group='-43m' symprec=0.1 version='1.16.2',cubic,8.276361278830812,79.94145652453996,152.39406091331068,55.3849793056372,0.33791886193624343,True,True
2037,YRh2,"[Element Rh, Element Y]",Y1 Rh2,crystal_system=<CrystalSystem.cubic: 'Cubic'> symbol='Fd-3m' number=227 point_group='m-3m' symprec=0.1 version='1.16.2',cubic,9.254390046937301,105.76360852053199,152.480702766511,62.04643770868661,0.32084367927227153,True,True
2038,VZn2N3,"[Element N, Element V, Element Zn]",V1 Zn2 N3,crystal_system=<CrystalSystem.ortho: 'Orthorhombic'> symbol='Cmc2_1' number=36 point_group='mm2' symprec=0.1 version='1.16.2',ortho,5.3698339577049605,138.4008410818494,152.4934854922366,60.800719011137566,0.32403165920340316,False,False
2039,HfSi,"[Element Hf, Element Si]",Hf1 Si1,crystal_system=<CrystalSystem.ortho: 'Orthorhombic'> symbol='Pnma' number=62 point_group='mmm' symprec=0.1 version='1.16.2',ortho,10.15822872072195,135.0734256466118,152.65474235592092,95.61136195971656,0.24092599857676222,True,True
2040,Ti3AlC,"[Element Al, Element C, Element Ti]",Ti3 Al1 C1,crystal_system=<CrystalSystem.cubic: 'Cubic'> symbol='Pm-3m' number=221 point_group='m-3m' symprec=0.1 version='1.16.2',cubic,4.181626170151405,72.50844376204412,152.90942717807798,100.64122945777638,0.23012142918025286,True,True
2041,NbSiAs,"[Element As, Element Nb, Element Si]",Nb1 Si1 As1,crystal_system=<CrystalSystem.tet: 'Tetragonal'> symbol='P4/nmm' number=129 point_group='4/mmm' symprec=0.1 version='1.16.2',tet,6.649265444160155,97.85200784825881,153.03752998581163,104.05877744893013,0.22284072805006905,True,True
2042,LiBC,"[Element B, Element C, Element Li]",Li1 B1 C1,crystal_system=<CrystalSystem.hex_: 'Hexagonal'> symbol='P6_3/mmc' number=194 point_group='6/mmm' symprec=0.1 version='1.16.2',hex_,2.183366715678177,45.27148437558257,153.1506113327619,133.5234641829556,0.1622368640165231,False,True
2043,Ti2MnBe,"[Element Be, Element Mn, Element Ti]",Ti2 Mn1 Be1,crystal_system=<CrystalSystem.cubic: 'Cubic'> symbol='Fm-3m' number=225 point_group='m-3m' symprec=0.1 version='1.16.2',cubic,5.122570854154643,51.7634416004737,153.26453622985048,53.44253773365108,0.3438071691576154,True,False
2044,ZrCo2Sn,"[Element Co, Element Sn, Element Zr]",Zr1 Co2 Sn1,crystal_system=<CrystalSystem.cubic: 'Cubic'> symbol='Fm-3m' number=225 point_group='m-3m' symprec=0.1 version='1.16.2',cubic,8.860582073057417,61.432234265608685,153.30937366197347,72.08574255411457,0.29675602227415454,True,True
2045,LiGaPt2,"[Element Ga, Element Li, Element Pt]",Li1 Ga1 Pt2,crystal_system=<CrystalSystem.cubic: 'Cubic'> symbol='Fm-3m' number=225 point_group='m-3m' symprec=0.1 version='1.16.2',cubic,14.34165091968726,54.05185064676748,153.37847027938054,99.16065899305993,0.23405679654698686,True,False
2046,Ti2GeC,"[Element C, Element Ge, Element Ti]",Ti2 Ge1 C1,crystal_system=<CrystalSystem.hex_: 'Hexagonal'> symbol='P6_3/mmc' number=194 point_group='6/mmm' symprec=0.1 version='1.16.2',hex_,5.619238324535505,106.61083373490163,153.44802057940646,104.23653273341208,0.22306026698199866,True,True
2047,Al3Pt2,"[Element Al, Element Pt]",Al3 Pt2,crystal_system=<CrystalSystem.trig: 'Trigonal'> symbol='P-3m1' number=164 point_group='-3m' symprec=0.1 version='1.16.2',trig,9.835325255848748,79.5399117928314,153.48753019324727,73.73077582614172,0.29296604807484466,True,True
2048,Be17Ru3,"[Element Be, Element Ru]",Be17 Ru3,crystal_system=<CrystalSystem.cubic: 'Cubic'> symbol='Im-3' number=204 point_group='m-3' symprec=0.1 version='1.16.2',cubic,4.234725342852341,715.8890873810998,153.499137534064,117.02684788013745,0.19604693026471195,True,True
2049,Be3Ni,"[Element Be, Element Ni]",Be3 Ni1,crystal_system=<CrystalSystem.tet: 'Tetragonal'> symbol='I4/mmm' number=139 point_group='4/mmm' symprec=0.1 version='1.16.2',tet,4.2433033657876775,33.54884443527943,153.50930075204633,316.60556043926675,-0.1111026785691745,True,False
2050,MgGaRh2,"[Element Ga, Element Mg, Element Rh]",Mg1 Ga1 Rh2,crystal_system=<CrystalSystem.cubic: 'Cubic'> symbol='Fm-3m' number=225 point_group='m-3m' symprec=0.1 version='1.16.2',cubic,8.965461392323975,55.534718337704646,153.61400524238775,78.35464064450672,0.2820239432535633,True,False
2051,Mn2CrCo,"[Element Co, Element Cr, Element Mn]",Mn2 Cr1 Co1,crystal_system=<CrystalSystem.cubic: 'Cubic'> symbol='Fm-3m' number=225 point_group='m-3m' symprec=0.1 version='1.16.2',cubic,7.194338315763557,50.96451568100037,153.80814865418068,97.31023539562628,0.23875730652941057,True,False
2052,YMn2O5,"[Element Mn, Element O, Element Y]",Y1 Mn2 O5,crystal_system=<CrystalSystem.ortho: 'Orthorhombic'> symbol='Pbam' number=55 point_group='mmm' symprec=0.1 version='1.16.2',ortho,5.3034026909308905,349.15192965223,153.8259978736079,77.36710584663226,0.2846307614476925,False,True
2053,PuN,"[Element N, Element Pu]",Pu1 N1,crystal_system=<CrystalSystem.cubic: 'Cubic'> symbol='Fm-3m' number=225 point_group='m-3m' symprec=0.1 version='1.16.2',cubic,14.142516394764485,30.293774660438064,153.93551056790318,90.9941944628467,0.253091330684783,True,True
2054,LiTiRh2,"[Element Li, Element Rh, Element Ti]",Li1 Ti1 Rh2,crystal_system=<CrystalSystem.cubic: 'Cubic'> symbol='Fm-3m' number=225 point_group='m-3m' symprec=0.1 version='1.16.2',cubic,8.091051663562684,53.48724108970368,153.95614874536642,61.905913050454295,0.3227120745235279,True,False
2055,AlAgO2,"[Element Ag, Element Al, Element O]",Al1 Ag1 O2,crystal_system=<CrystalSystem.hex_: 'Hexagonal'> symbol='P6_3/mmc' number=194 point_group='6/mmm' symprec=0.1 version='1.16.2',hex_,6.30693839740901,87.85832335519181,153.97198366991427,60.13985899473977,0.3272027879713951,False,True
2056,LaScO3,"[Element La, Element O, Element Sc]",La1 Sc1 O3,crystal_system=<CrystalSystem.ortho: 'Orthorhombic'> symbol='Pnma' number=62 point_group='mmm' symprec=0.1 version='1.16.2',ortho,5.761036661691382,267.3212593398151,154.0800306426645,78.64832638464449,0.28189126336815434,False,True
2057,LiNbO2,"[Element Li, Element Nb, Element O]",Li1 Nb1 O2,crystal_system=<CrystalSystem.hex_: 'Hexagonal'> symbol='P6_3/mmc' number=194 point_group='6/mmm' symprec=0.1 version='1.16.2',hex_,5.667091788849184,77.26563847183948,154.19711113343357,100.48260253050788,0.2323195158259234,False,True
2058,Zr2CoP,"[Element Co, Element P, Element Zr]",Zr2 Co1 P1,crystal_system=<CrystalSystem.mono: 'Monoclinic'> symbol='P2_1/m' number=11 point_group='2/m' symprec=0.1 version='1.16.2',mono,6.813145529403653,132.75983732590214,154.27312435440425,78.08190157519869,0.2834672280240164,True,True
2059,Y(PdO2)2,"[Element O, Element Pd, Element Y]",Y1 Pd2 O4,crystal_system=<CrystalSystem.tet: 'Tetragonal'> symbol='I4_1/a' number=88 point_group='4/m' symprec=0.1 version='1.16.2',tet,7.352770236704027,165.197950575512,154.3315043407995,58.14988666875275,0.3326282887145643,True,True
2060,TbMnO3,"[Element Mn, Element O, Element Tb]",Tb1 Mn1 O3,crystal_system=<CrystalSystem.ortho: 'Orthorhombic'> symbol='Pnma' number=62 point_group='mmm' symprec=0.1 version='1.16.2',ortho,7.738046495726133,224.7758055110435,154.36035077443563,69.35018895737127,0.30462212700772273,True,True