,Formula,Elements,Composition,Symmetry,Crystal system,Density [g/m$^3$],Volume [$\mathring{A}^3$],Bulk modulus[GPa],Shear modulus [GPa],Poisson,Metal,Experimental report
1855,Sr3Ti2O7,"[Element O, Element Sr, Element Ti]",Sr3 Ti2 O7,crystal_system=<CrystalSystem.tet: 'Tetragonal'> symbol='I4/mmm' number=139 point_group='4/mmm' symprec=0.1 version='1.16.2',tet,5.022340116866562,155.59136359944824,140.22588081169278,83.4100419395898,0.2517990088081745,False,True
1856,Sc2RuRh,"[Element Rh, Element Ru, Element Sc]",Sc2 Ru1 Rh1,crystal_system=<CrystalSystem.cubic: 'Cubic'> symbol='Fm-3m' number=225 point_group='m-3m' symprec=0.1 version='1.16.2',cubic,7.413707665775605,65.82554973584558,140.40156626628735,59.069310339378745,0.315513719620075,True,False
1857,SrSc2O4,"[Element O, Element Sc, Element Sr]",Sr1 Sc2 O4,crystal_system=<CrystalSystem.ortho: 'Orthorhombic'> symbol='Pnma' number=62 point_group='mmm' symprec=0.1 version='1.16.2',ortho,4.567597786500767,351.2297387223793,140.43320082066197,80.9573092756242,0.25821942699938977,False,False
1858,Be12Mo,"[Element Be, Element Mo]",Be12 Mo1,crystal_system=<CrystalSystem.tet: 'Tetragonal'> symbol='I4/mmm' number=139 point_group='4/mmm' symprec=0.1 version='1.16.2',tet,3.0970886466716587,109.4231131709818,140.52279874726594,149.92402112826488,0.10649341118593496,True,True
1859,TiS,"[Element S, Element Ti]",Ti1 S1,crystal_system=<CrystalSystem.hex_: 'Hexagonal'> symbol='P-6m2' number=187 point_group='-6m2' symprec=0.1 version='1.16.2',hex_,4.4629484994553605,29.740475088984113,140.57111352247074,100.97630318511497,0.21022105261112684,True,True
1860,FeP4,"[Element Fe, Element P]",Fe1 P4,crystal_system=<CrystalSystem.mono: 'Monoclinic'> symbol='C2/c' number=15 point_group='2/m' symprec=0.1 version='1.16.2',mono,4.142491451453413,288.19890158792356,140.58844749283503,113.80659668815836,0.1812568348934452,False,True
1861,TlPd3O4,"[Element O, Element Pd, Element Tl]",Tl1 Pd3 O4,crystal_system=<CrystalSystem.cubic: 'Cubic'> symbol='Fm-3m' number=225 point_group='m-3m' symprec=0.1 version='1.16.2',cubic,8.749107397040602,223.06290854585922,140.67341562645385,37.117904769083594,0.3787361560921727,False,True
1862,NbZn2,"[Element Nb, Element Zn]",Nb1 Zn2,crystal_system=<CrystalSystem.hex_: 'Hexagonal'> symbol='P6_3/mmc' number=194 point_group='6/mmm' symprec=0.1 version='1.16.2',hex_,8.346958291046846,356.0607926260727,140.67366449371792,82.32953578712295,0.25514191715065154,True,True
1863,Sc2NiOs,"[Element Ni, Element Os, Element Sc]",Sc2 Ni1 Os1,crystal_system=<CrystalSystem.cubic: 'Cubic'> symbol='Fm-3m' number=225 point_group='m-3m' symprec=0.1 version='1.16.2',cubic,8.737036653967275,64.39816483277274,140.67685143632772,63.71206324590301,0.30325363388964766,True,False
1864,ScAsO4,"[Element As, Element O, Element Sc]",Sc1 As1 O4,crystal_system=<CrystalSystem.tet: 'Tetragonal'> symbol='I4_1/amd' number=141 point_group='4/mmm' symprec=0.1 version='1.16.2',tet,4.375879641113695,139.5521960808507,140.68686113732196,66.69336042781818,0.2953161464932938,False,True
1865,Nb2ZnO6,"[Element Nb, Element O, Element Zn]",Nb2 Zn1 O6,crystal_system=<CrystalSystem.ortho: 'Orthorhombic'> symbol='Pbcn' number=60 point_group='mmm' symprec=0.1 version='1.16.2',ortho,5.539508444555091,416.33247793290576,140.93819798577653,57.38249689432221,0.3207532969664028,False,True
1866,Y2Pb2O7,"[Element O, Element Pb, Element Y]",Y2 Pb2 O7,crystal_system=<CrystalSystem.cubic: 'Cubic'> symbol='Fd-3m' number=227 point_group='m-3m' symprec=0.1 version='1.16.2',cubic,7.696285549852605,303.8775152424313,140.979228045681,70.73074344269232,0.2850862861856762,False,False
1867,BeAlB,"[Element Al, Element B, Element Be]",Be1 Al1 B1,crystal_system=<CrystalSystem.cubic: 'Cubic'> symbol='F-43m' number=216 point_group='-43m' symprec=0.1 version='1.16.2',cubic,2.5673893024408843,30.27241212842413,141.06826093131306,130.8458121836495,0.14575668710650272,True,True
1868,Hf2Si,"[Element Hf, Element Si]",Hf2 Si1,crystal_system=<CrystalSystem.tet: 'Tetragonal'> symbol='I4/mcm' number=140 point_group='4/mmm' symprec=0.1 version='1.16.2',tet,11.538330656684913,110.83341689110051,141.07162345141813,99.6753711578666,0.21406416707179252,True,True
1869,SbIrS,"[Element Ir, Element S, Element Sb]",Sb1 Ir1 S1,crystal_system=<CrystalSystem.cubic: 'Cubic'> symbol='P2_13' number=198 point_group='23' symprec=0.1 version='1.16.2',cubic,10.255089749764359,224.12919777619723,141.0835437489251,85.95333922586762,0.24680085719062902,False,True
1870,Cu2PdAu,"[Element Au, Element Cu, Element Pd]",Cu2 Pd1 Au1,crystal_system=<CrystalSystem.cubic: 'Cubic'> symbol='Fm-3m' number=225 point_group='m-3m' symprec=0.1 version='1.16.2',cubic,12.925112678930079,55.30524173486245,141.1402822441246,-16.056677088803266,0.5591240404237773,True,False
1871,FeWO4,"[Element Fe, Element O, Element W]",Fe1 W1 O4,crystal_system=<CrystalSystem.mono: 'Monoclinic'> symbol='P2/c' number=13 point_group='2/m' symprec=0.1 version='1.16.2',mono,7.6090710092220935,132.54622556038294,141.19683213680094,54.328067633153736,0.32948538186036325,False,True
1872,ScOF,"[Element F, Element O, Element Sc]",Sc1 O1 F1,crystal_system=<CrystalSystem.mono: 'Monoclinic'> symbol='P2_1/c' number=14 point_group='2/m' symprec=0.1 version='1.16.2',mono,3.8414089081269935,138.2474719923996,141.21520715803152,59.77065649579084,0.31453668643472654,False,True
1873,TiH2,"[Element H, Element Ti]",Ti1 H2,crystal_system=<CrystalSystem.tet: 'Tetragonal'> symbol='I4/mmm' number=139 point_group='4/mmm' symprec=0.1 version='1.16.2',tet,3.8770111412948536,21.365033005000654,141.31862062585898,31.367722325881495,0.39666341669708566,True,True
1874,Al8Mo3,"[Element Al, Element Mo]",Al8 Mo3,crystal_system=<CrystalSystem.mono: 'Monoclinic'> symbol='C2/m' number=12 point_group='2/m' symprec=0.1 version='1.16.2',mono,5.103490179411473,163.88148426367061,141.40035127607285,104.13906348580278,0.2043408400958868,True,True
1875,Ti2Ni,"[Element Ni, Element Ti]",Ti2 Ni1,crystal_system=<CrystalSystem.cubic: 'Cubic'> symbol='Fd-3m' number=227 point_group='m-3m' symprec=0.1 version='1.16.2',cubic,5.7728644215094995,355.36290053583105,141.41887456817207,35.53646166454764,0.3840680858564126,True,True
1876,In2TeO6,"[Element In, Element O, Element Te]",In2 Te1 O6,crystal_system=<CrystalSystem.trig: 'Trigonal'> symbol='P321' number=150 point_group='32' symprec=0.1 version='1.16.2',trig,6.755182694579025,334.23675145877587,141.61588404572436,59.6348081356207,0.3153654269484516,False,True
1877,Cu3Au,"[Element Au, Element Cu]",Cu3 Au1,crystal_system=<CrystalSystem.cubic: 'Cubic'> symbol='Pm-3m' number=221 point_group='m-3m' symprec=0.1 version='1.16.2',cubic,12.3489769756495,52.120311705683065,141.75243365214163,47.31561669179368,0.34981487007149475,True,True
1878,TiCoSb,"[Element Co, Element Sb, Element Ti]",Ti1 Co1 Sb1,crystal_system=<CrystalSystem.cubic: 'Cubic'> symbol='F-43m' number=216 point_group='-43m' symprec=0.1 version='1.16.2',cubic,7.557042599749188,50.222441895432794,141.99140523524866,75.15021965500452,0.27505521278091777,False,True
1879,ScTlRh2,"[Element Rh, Element Sc, Element Tl]",Sc1 Tl1 Rh2,crystal_system=<CrystalSystem.cubic: 'Cubic'> symbol='Fm-3m' number=225 point_group='m-3m' symprec=0.1 version='1.16.2',cubic,11.204472288652681,67.45473492425899,142.02873867118123,60.662475847615866,0.31305812364180147,True,False
1880,ZrSi,"[Element Si, Element Zr]",Zr1 Si1,crystal_system=<CrystalSystem.ortho: 'Orthorhombic'> symbol='Cmcm' number=63 point_group='mmm' symprec=0.1 version='1.16.2',ortho,5.622895617207469,70.46834914033322,142.09123185831288,92.03651928345238,0.2336444951931019,True,True
1881,Ti2Pd,"[Element Pd, Element Ti]",Ti2 Pd1,crystal_system=<CrystalSystem.tet: 'Tetragonal'> symbol='I4/mmm' number=139 point_group='4/mmm' symprec=0.1 version='1.16.2',tet,7.0126413290254614,47.8684990033714,142.093083432055,62.39039949204998,0.30848902877714196,True,True
1882,ScCo2,"[Element Co, Element Sc]",Sc1 Co2,crystal_system=<CrystalSystem.cubic: 'Cubic'> symbol='Fd-3m' number=227 point_group='m-3m' symprec=0.1 version='1.16.2',cubic,6.597759713545664,81.95896944523425,142.17341212490126,47.89461391651638,0.34856730173881717,True,True
1883,Ti5Si4,"[Element Si, Element Ti]",Ti5 Si4,crystal_system=<CrystalSystem.tet: 'Tetragonal'> symbol='P4_12_12' number=92 point_group='422' symprec=0.1 version='1.16.2',tet,4.294248814498935,543.9586037520537,142.1856475094593,94.60493282179891,0.22770955446933153,True,True
1884,NbGe2,"[Element Ge, Element Nb]",Nb1 Ge2,crystal_system=<CrystalSystem.hex_: 'Hexagonal'> symbol='P6_222' number=180 point_group='622' symprec=0.1 version='1.16.2',hex_,8.1142165056667,146.23141575498374,142.26674318922454,104.98875907100029,0.20386160305868434,True,True
1885,Al2SiO5,"[Element Al, Element O, Element Si]",Al2 Si1 O5,crystal_system=<CrystalSystem.ortho: 'Orthorhombic'> symbol='Pnnm' number=58 point_group='mmm' symprec=0.1 version='1.16.2',ortho,3.1566437736607282,340.9735539443443,142.2930704611273,88.66381184961286,0.24202789722495544,False,True
1886,Dy2O3,"[Element Dy, Element O]",Dy2 O3,crystal_system=<CrystalSystem.cubic: 'Cubic'> symbol='Ia-3' number=206 point_group='m-3' symprec=0.1 version='1.16.2',cubic,8.333958265069626,594.5583725490907,142.3301497472275,63.58544399817745,0.30557918293259384,False,True
1887,MgPd5,"[Element Mg, Element Pd]",Mg1 Pd5,crystal_system=<CrystalSystem.hex_: 'Hexagonal'> symbol='P-62m' number=189 point_group='-6m2' symprec=0.1 version='1.16.2',hex_,10.150900745317342,91.01972943413787,142.33336192477776,44.58409757534253,0.35818831775062804,True,False
1888,ScZnPt2,"[Element Pt, Element Sc, Element Zn]",Sc1 Zn1 Pt2,crystal_system=<CrystalSystem.cubic: 'Cubic'> symbol='Fm-3m' number=225 point_group='m-3m' symprec=0.1 version='1.16.2',cubic,13.035978502130755,63.75850147031204,142.39875611919996,-62.36375603880176,0.7564070659811716,True,False
1889,YCoC,"[Element C, Element Co, Element Y]",Y1 Co1 C1,crystal_system=<CrystalSystem.tet: 'Tetragonal'> symbol='P4_2/mmc' number=131 point_group='4/mmm' symprec=0.1 version='1.16.2',tet,5.835669744323947,90.9704482906095,142.52229246689714,59.749863141749884,0.3160851305603378,True,True
1890,Y3Si6N11,"[Element N, Element Si, Element Y]",Y3 Si6 N11,crystal_system=<CrystalSystem.tet: 'Tetragonal'> symbol='P4bm' number=100 point_group='4mm' symprec=0.1 version='1.16.2',tet,4.115892190712222,475.5045486597552,142.53154775357518,93.87894868620083,0.229960586300153,False,False
1891,Sc2CoIr,"[Element Co, Element Ir, Element Sc]",Sc2 Co1 Ir1,crystal_system=<CrystalSystem.cubic: 'Cubic'> symbol='Fm-3m' number=225 point_group='m-3m' symprec=0.1 version='1.16.2',cubic,8.713029033370788,64.9999907625546,142.73015904285268,65.73795335925928,0.3003619068019591,True,False
1892,FeAsS,"[Element As, Element Fe, Element S]",Fe1 As1 S1,crystal_system=<CrystalSystem.mono: 'Monoclinic'> symbol='P2_1/c' number=14 point_group='2/m' symprec=0.1 version='1.16.2',mono,6.347305252930267,170.39560714503736,142.73661089946245,116.94332293721462,0.1782280674844429,False,True
1893,MnO,"[Element Mn, Element O]",Mn1 O1,crystal_system=<CrystalSystem.cubic: 'Cubic'> symbol='Fm-3m' number=225 point_group='-3m' symprec=0.1 version='1.16.2',cubic,5.354813883626321,43.995702284807535,142.77704951117738,64.86467532529902,0.30272133647303934,False,True
1894,GePt,"[Element Ge, Element Pt]",Ge1 Pt1,crystal_system=<CrystalSystem.ortho: 'Orthorhombic'> symbol='Pnma' number=62 point_group='mmm' symprec=0.1 version='1.16.2',ortho,13.552198871976012,131.2159496082121,142.84605565269953,54.116368499505796,0.3318164509273757,True,True
1895,Nb2CoO6,"[Element Co, Element Nb, Element O]",Nb2 Co1 O6,crystal_system=<CrystalSystem.ortho: 'Orthorhombic'> symbol='Pbcn' number=60 point_group='mmm' symprec=0.1 version='1.16.2',ortho,5.602352969365906,403.98453665216084,142.8668840982429,61.64118879588813,0.31139556960675363,False,True
1896,LiHfPt2,"[Element Hf, Element Li, Element Pt]",Li1 Hf1 Pt2,crystal_system=<CrystalSystem.cubic: 'Cubic'> symbol='Fm-3m' number=225 point_group='m-3m' symprec=0.1 version='1.16.2',cubic,15.024246581552156,63.617474660559594,142.9287110236287,18.30038842173953,0.4386011849765369,True,False
1897,LiFeRh2,"[Element Fe, Element Li, Element Rh]",Li1 Fe1 Rh2,crystal_system=<CrystalSystem.cubic: 'Cubic'> symbol='Fm-3m' number=225 point_group='m-3m' symprec=0.1 version='1.16.2',cubic,8.75488743082774,50.944779723957126,142.94474851812362,60.156107207918886,0.31546842324772123,True,False
1898,CuO,"[Element Cu, Element O]",Cu1 O1,crystal_system=<CrystalSystem.tet: 'Tetragonal'> symbol='P4_2/mmc' number=131 point_group='4/mmm' symprec=0.1 version='1.16.2',tet,6.155599921960792,42.91644874355269,143.0176478220401,25.091664258515625,0.41712442304149433,True,False
1899,Hf3(Cu2Ge)2,"[Element Cu, Element Ge, Element Hf]",Hf3 Cu4 Ge2,crystal_system=<CrystalSystem.hex_: 'Hexagonal'> symbol='P-62m' number=189 point_group='-6m2' symprec=0.1 version='1.16.2',hex_,11.263141202104318,137.83849494868699,143.0636133210964,74.34899247673124,0.27852101952951047,True,True
1900,Ni3O4,"[Element Ni, Element O]",Ni3 O4,crystal_system=<CrystalSystem.ortho: 'Orthorhombic'> symbol='Cmmm' number=65 point_group='2/m' symprec=0.1 version='1.16.2',ortho,5.744078133199698,138.80680474007113,143.16844092894368,78.25124299583487,0.2688324043376469,True,False
1901,FeCuO2,"[Element Cu, Element Fe, Element O]",Fe1 Cu1 O2,crystal_system=<CrystalSystem.trig: 'Trigonal'> symbol='R-3m' number=166 point_group='-3m' symprec=0.1 version='1.16.2',trig,6.216869178480445,40.43653967417185,143.3257737871437,50.34318874815784,0.34278251389888087,False,True
1902,Ge7Ir3,"[Element Ge, Element Ir]",Ge7 Ir3,crystal_system=<CrystalSystem.cubic: 'Cubic'> symbol='Im-3m' number=229 point_group='m-3m' symprec=0.1 version='1.16.2',cubic,10.914050848971662,330.19864811212653,143.370796499767,83.7419811782227,0.25554752681832466,True,True
1903,Co(AsO3)2,"[Element As, Element Co, Element O]",Co1 As2 O6,crystal_system=<CrystalSystem.trig: 'Trigonal'> symbol='P-31m' number=162 point_group='-3m' symprec=0.1 version='1.16.2',trig,5.702735875585173,88.74462075318229,143.42269707432223,72.77417494099191,0.2829978318841533,False,True
1904,ScNi2,"[Element Ni, Element Sc]",Sc1 Ni2,crystal_system=<CrystalSystem.cubic: 'Cubic'> symbol='Fd-3m' number=227 point_group='m-3m' symprec=0.1 version='1.16.2',cubic,6.697352904944474,80.50237736607001,143.61416205845245,59.947212348882786,0.3167834027614926,True,True
1905,CaSc2O4,"[Element Ca, Element O, Element Sc]",Ca1 Sc2 O4,crystal_system=<CrystalSystem.ortho: 'Orthorhombic'> symbol='Pnma' number=62 point_group='mmm' symprec=0.1 version='1.16.2',ortho,3.8906687885642475,331.1756548672651,143.76999665807034,82.36520383783471,0.25948263173876696,False,True
1906,TiAu4,"[Element Au, Element Ti]",Ti1 Au4,crystal_system=<CrystalSystem.tet: 'Tetragonal'> symbol='I4/m' number=87 point_group='4/m' symprec=0.1 version='1.16.2',tet,16.323493271890175,85.01659117570142,143.7843211087398,39.007117586566736,0.3756045022649379,True,True
1907,LiIr,"[Element Ir, Element Li]",Li1 Ir1,crystal_system=<CrystalSystem.hex_: 'Hexagonal'> symbol='P-6m2' number=187 point_group='-6m2' symprec=0.1 version='1.16.2',hex_,12.45683302362025,26.54845246772127,143.8748005265926,65.12440941887415,0.30334806653704033,True,True
1908,NaTi2O4,"[Element Na, Element O, Element Ti]",Na1 Ti2 O4,crystal_system=<CrystalSystem.ortho: 'Orthorhombic'> symbol='Pnma' number=62 point_group='mmm' symprec=0.1 version='1.16.2',ortho,4.15060229787068,292.4066920579136,143.91873630654413,77.33995653712628,0.2721256951491555,True,True
1909,Zn2RhAu,"[Element Au, Element Rh, Element Zn]",Zn2 Rh1 Au1,crystal_system=<CrystalSystem.cubic: 'Cubic'> symbol='Fm-3m' number=225 point_group='m-3m' symprec=0.1 version='1.16.2',cubic,12.481612611607652,57.29850039617865,143.95689101935767,3295.18350596337,-0.8261881962345945,True,False
1910,MnNiGe,"[Element Ge, Element Mn, Element Ni]",Mn1 Ni1 Ge1,crystal_system=<CrystalSystem.ortho: 'Orthorhombic'> symbol='Pnma' number=62 point_group='mmm' symprec=0.1 version='1.16.2',ortho,7.8327062482443806,157.9586935148306,143.99613390178354,59.845514425273,0.31748255113405316,True,True
1911,ScRu,"[Element Ru, Element Sc]",Sc1 Ru1,crystal_system=<CrystalSystem.cubic: 'Cubic'> symbol='Pm-3m' number=221 point_group='m-3m' symprec=0.1 version='1.16.2',cubic,7.410138302526712,32.72296976281971,144.19768430924003,51.60727320160066,0.3401262749630491,True,True
1912,Be12W,"[Element Be, Element W]",Be12 W1,crystal_system=<CrystalSystem.tet: 'Tetragonal'> symbol='I4/mmm' number=139 point_group='4/mmm' symprec=0.1 version='1.16.2',tet,4.448328426834965,108.99700267510038,144.26034605899304,157.5851137827158,0.09960836187944,True,True
1913,NiP2,"[Element Ni, Element P]",Ni1 P2,crystal_system=<CrystalSystem.cubic: 'Cubic'> symbol='Pa-3' number=205 point_group='m-3' symprec=0.1 version='1.16.2',cubic,4.98273948827175,160.8183352184082,144.56146298646377,97.86727050297131,0.22382570321962952,True,True
1914,Zr3(CuSi)4,"[Element Cu, Element Si, Element Zr]",Zr3 Cu4 Si4,crystal_system=<CrystalSystem.ortho: 'Orthorhombic'> symbol='Immm' number=71 point_group='mmm' symprec=0.1 version='1.16.2',ortho,6.511596050828708,163.25855920130257,144.8562769106598,83.03664377168352,0.2593631215416292,True,True
1915,Hf3Si2,"[Element Hf, Element Si]",Hf3 Si2,crystal_system=<CrystalSystem.tet: 'Tetragonal'> symbol='P4/mbm' number=127 point_group='4/mmm' symprec=0.1 version='1.16.2',tet,10.978191815965062,178.98083953562747,144.9495808126668,94.57840565981213,0.23203563700985746,True,True
1916,Ti3InC,"[Element C, Element In, Element Ti]",Ti3 In1 C1,crystal_system=<CrystalSystem.cubic: 'Cubic'> symbol='Pm-3m' number=221 point_group='m-3m' symprec=0.1 version='1.16.2',cubic,5.909770786937015,75.98587116297644,144.96947844244534,91.59920345607783,0.2390373945920324,True,True
1917,Ho2O3,"[Element Ho, Element O]",Ho2 O3,crystal_system=<CrystalSystem.cubic: 'Cubic'> symbol='Ia-3' number=206 point_group='m-3' symprec=0.1 version='1.16.2',cubic,8.612953628233592,582.7960001301811,145.02167953030755,65.37105181033061,0.3040577416451451,False,True
1918,ZrNi2Sb,"[Element Ni, Element Sb, Element Zr]",Zr1 Ni2 Sb1,crystal_system=<CrystalSystem.hex_: 'Hexagonal'> symbol='P6_3/mmc' number=194 point_group='6/mmm' symprec=0.1 version='1.16.2',hex_,8.681767238159345,126.3783293918865,145.04228224609466,60.02016353019437,0.318174716946235,True,True
1919,Y(CoSi)2,"[Element Co, Element Si, Element Y]",Y1 Co2 Si2,crystal_system=<CrystalSystem.tet: 'Tetragonal'> symbol='I4/mmm' number=139 point_group='4/mmm' symprec=0.1 version='1.16.2',tet,6.054385565555461,72.117561326526,145.1475627077899,92.850410140798,0.23636677126992553,True,True
1920,In2O3,"[Element In, Element O]",In2 O3,crystal_system=<CrystalSystem.cubic: 'Cubic'> symbol='Ia-3' number=206 point_group='m-3' symprec=0.1 version='1.16.2',cubic,6.998712419580598,526.9797159082179,145.18146267217668,57.62370727075968,0.3247340780311682,False,True
1921,HfInPd2,"[Element Hf, Element In, Element Pd]",Hf1 In1 Pd2,crystal_system=<CrystalSystem.cubic: 'Cubic'> symbol='Fm-3m' number=225 point_group='m-3m' symprec=0.1 version='1.16.2',cubic,12.000205636095506,70.03867708344724,145.23806585146923,29.944992948535578,0.403539991609981,True,False
1922,FeGe,"[Element Fe, Element Ge]",Fe1 Ge1,crystal_system=<CrystalSystem.hex_: 'Hexagonal'> symbol='P6/mmm' number=191 point_group='6/mmm' symprec=0.1 version='1.16.2',hex_,7.189595781433942,89.02629652270166,145.2719952721649,73.2685532153252,0.28411674015478516,True,True
1923,P3N5,"[Element N, Element P]",P3 N5,crystal_system=<CrystalSystem.mono: 'Monoclinic'> symbol='C2/c' number=15 point_group='2/m' symprec=0.1 version='1.16.2',mono,2.7633783883061063,195.84200946748413,145.28052399739892,87.0987129798953,0.25016637037856954,False,True