,Formula,Elements,Composition,Symmetry,Crystal system,Density [g/m$^3$],Volume [$\mathring{A}^3$],Bulk modulus[GPa],Shear modulus [GPa],Poisson,Metal,Experimental report
206,ScTlS2,"[Element S, Element Sc, Element Tl]",Sc1 Tl1 S2,crystal_system=<CrystalSystem.hex_: 'Hexagonal'> symbol='P6_3/mmc' number=194 point_group='6/mmm' symprec=0.1 version='1.16.2',hex_,5.59073709680138,186.21082110984122,50.31666118124999,27.045742204179543,0.2720809691592203,False,True
207,Li2CuAs,"[Element As, Element Cu, Element Li]",Li2 Cu1 As1,crystal_system=<CrystalSystem.hex_: 'Hexagonal'> symbol='P6_3/mmc' number=194 point_group='6/mmm' symprec=0.1 version='1.16.2',hex_,4.303285912931473,117.5764137914542,50.36776873645442,36.76529556839495,0.2064547091385156,True,True
208,V5Te4,"[Element Te, Element V]",V5 Te4,crystal_system=<CrystalSystem.tet: 'Tetragonal'> symbol='I4/m' number=87 point_group='4/m' symprec=0.1 version='1.16.2',tet,6.797744038882044,186.89890155199254,50.37193642900315,30.321342076010243,0.2493235934738917,True,True
209,BaCO3,"[Element Ba, Element C, Element O]",Ba1 C1 O3,crystal_system=<CrystalSystem.ortho: 'Orthorhombic'> symbol='Pnma' number=62 point_group='mmm' symprec=0.1 version='1.16.2',ortho,4.244725770425251,308.7916524320886,50.42916569006796,22.170936450754517,0.30827450126768546,False,True
210,Cu2PbO2,"[Element Cu, Element O, Element Pb]",Cu2 Pb1 O2,crystal_system=<CrystalSystem.mono: 'Monoclinic'> symbol='C2/c' number=15 point_group='2/m' symprec=0.1 version='1.16.2',mono,8.119401012574201,149.8239050378739,50.65322031501292,17.085648992133684,0.3483928746811986,False,True
211,NaCuO2,"[Element Cu, Element Na, Element O]",Na1 Cu1 O2,crystal_system=<CrystalSystem.ortho: 'Orthorhombic'> symbol='Cmcm' number=63 point_group='mmm' symprec=0.1 version='1.16.2',ortho,3.8560362917454407,102.08995358959562,50.719930601774536,21.619307415250123,0.3133897501579643,False,False
212,KHgF3,"[Element F, Element Hg, Element K]",K1 Hg1 F3,crystal_system=<CrystalSystem.cubic: 'Cubic'> symbol='Pm-3m' number=221 point_group='4/mmm' symprec=0.1 version='1.16.2',cubic,5.300151193979543,371.80415431650613,50.74615979275404,13.24257202710541,0.3799629451712934,False,True
213,Ba(CdP)2,"[Element Ba, Element Cd, Element P]",Ba1 Cd2 P2,crystal_system=<CrystalSystem.trig: 'Trigonal'> symbol='P-3m1' number=164 point_group='-3m' symprec=0.1 version='1.16.2',trig,5.423798232384745,129.8405316603431,50.75805310796456,32.17467677586362,0.23834470206310546,False,True
214,Ge3(BiO3)4,"[Element Bi, Element Ge, Element O]",Ge3 Bi4 O12,crystal_system=<CrystalSystem.cubic: 'Cubic'> symbol='I-43d' number=220 point_group='-43m' symprec=0.1 version='1.16.2',cubic,7.135210303964874,579.8726606739565,50.77193633375827,40.94438206901045,0.1822078423736031,False,True
215,Na3AlF6,"[Element Al, Element F, Element Na]",Na3 Al1 F6,crystal_system=<CrystalSystem.mono: 'Monoclinic'> symbol='P2_1/c' number=14 point_group='2/m' symprec=0.1 version='1.16.2',mono,3.0649203549156296,227.4875904866799,50.92023807239832,27.915333438871492,0.2682426602666428,False,True
216,BaAl4,"[Element Al, Element Ba]",Ba1 Al4,crystal_system=<CrystalSystem.tet: 'Tetragonal'> symbol='I4/mmm' number=139 point_group='4/mmm' symprec=0.1 version='1.16.2',tet,3.444669667803434,118.22684999220105,50.96427171466897,34.629022539700486,0.2230000812110014,True,True
217,Ba(MgP)2,"[Element Ba, Element Mg, Element P]",Ba1 Mg2 P2,crystal_system=<CrystalSystem.trig: 'Trigonal'> symbol='P-3m1' number=164 point_group='-3m' symprec=0.1 version='1.16.2',trig,3.2570133042670864,126.38018259497746,51.047022957674415,37.71536770175983,0.2035832138127928,False,True
218,Ca3Au4,"[Element Au, Element Ca]",Ca3 Au4,crystal_system=<CrystalSystem.trig: 'Trigonal'> symbol='R-3' number=148 point_group='-3' symprec=0.1 version='1.16.2',trig,9.246370262074029,326.1682026456079,51.202354328285374,17.056893118355397,0.350083519322264,True,True
219,ZnAs2,"[Element As, Element Zn]",Zn1 As2,crystal_system=<CrystalSystem.mono: 'Monoclinic'> symbol='P2_1/c' number=14 point_group='2/m' symprec=0.1 version='1.16.2',mono,5.121352392989239,558.3442182356343,51.20820109612544,29.39778185655575,0.25906404700215074,False,True
220,La3Te4,"[Element La, Element Te]",La3 Te4,crystal_system=<CrystalSystem.cubic: 'Cubic'> symbol='I-43d' number=220 point_group='-43m' symprec=0.1 version='1.16.2',cubic,6.735405691123819,457.14039768080295,51.22179391160674,23.174112640962957,0.3034309638571059,True,True
221,Na3CoO3,"[Element Co, Element Na, Element O]",Na3 Co1 O3,crystal_system=<CrystalSystem.tri: 'Triclinic'> symbol='P-1' number=2 point_group='-1' symprec=0.1 version='1.16.2',tri,3.110522646850554,187.80765940023784,51.256367574241544,24.804142183628695,0.2916473249116654,False,True
222,RbHgF3,"[Element F, Element Hg, Element Rb]",Rb1 Hg1 F3,crystal_system=<CrystalSystem.cubic: 'Cubic'> symbol='Pm-3m' number=221 point_group='m-3m' symprec=0.1 version='1.16.2',cubic,6.050618361720007,94.14788543919498,51.34442310652017,15.00701002193074,0.36683342502397964,False,True
223,Ba(ZnAs)2,"[Element As, Element Ba, Element Zn]",Ba1 Zn2 As2,crystal_system=<CrystalSystem.ortho: 'Orthorhombic'> symbol='Pnma' number=62 point_group='mmm' symprec=0.1 version='1.16.2',ortho,5.942561357577934,467.19634427852776,51.371733613139526,28.41255935167408,0.2665076315904362,False,True
224,LiZnGe,"[Element Ge, Element Li, Element Zn]",Li1 Zn1 Ge1,crystal_system=<CrystalSystem.hex_: 'Hexagonal'> symbol='P-6m2' number=187 point_group='-6m2' symprec=0.1 version='1.16.2',hex_,5.0021096380133,144.39601089708893,51.37956679388117,32.636850042497144,0.23789248671694307,True,False
225,Sr4CN4,"[Element C, Element N, Element Sr]",Sr4 C1 N4,crystal_system=<CrystalSystem.ortho: 'Orthorhombic'> symbol='Pnma' number=62 point_group='mmm' symprec=0.1 version='1.16.2',ortho,4.103893626351333,677.3710257433166,51.433388512159745,22.62780050270452,0.30816090574092847,False,True
226,MnSe,"[Element Mn, Element Se]",Mn1 Se1,crystal_system=<CrystalSystem.hex_: 'Hexagonal'> symbol='P6_3mc' number=186 point_group='6mm' symprec=0.1 version='1.16.2',hex_,4.28190631081759,103.85231180894776,51.468517107313815,13.346627719535238,0.3806576362006426,True,True
227,Bi2PdO4,"[Element Bi, Element O, Element Pd]",Bi2 Pd1 O4,crystal_system=<CrystalSystem.tet: 'Tetragonal'> symbol='P4/ncc' number=130 point_group='4/mmm' symprec=0.1 version='1.16.2',tet,8.886163528142784,439.7962364970344,51.62077359262955,17.034615054860446,0.3513532399021238,False,True
228,BaSO4,"[Element Ba, Element O, Element S]",Ba1 S1 O4,crystal_system=<CrystalSystem.ortho: 'Orthorhombic'> symbol='Pnma' number=62 point_group='mmm' symprec=0.1 version='1.16.2',ortho,4.423713821516306,350.43184453130544,51.63190105923482,18.525042147382177,0.3397679402831307,False,True
229,Li2HgPd,"[Element Hg, Element Li, Element Pd]",Li2 Hg1 Pd1,crystal_system=<CrystalSystem.cubic: 'Cubic'> symbol='Fm-3m' number=225 point_group='m-3m' symprec=0.1 version='1.16.2',cubic,9.014706298127985,59.109380221301365,51.65321722153395,12.856101409601544,0.3850873546664275,True,False
230,AlCuTe2,"[Element Al, Element Cu, Element Te]",Al1 Cu1 Te2,crystal_system=<CrystalSystem.tet: 'Tetragonal'> symbol='I-42d' number=122 point_group='-42m' symprec=0.1 version='1.16.2',tet,5.249753008760489,218.71279783515297,51.66965884420218,24.321091396039893,0.2965670926496526,False,True
231,Li2CuSn,"[Element Cu, Element Li, Element Sn]",Li2 Cu1 Sn1,crystal_system=<CrystalSystem.cubic: 'Cubic'> symbol='F-43m' number=216 point_group='-43m' symprec=0.1 version='1.16.2',cubic,5.364250590732608,60.715808468655055,51.71140100458932,29.819813498355774,0.2581576161953659,True,True
232,Li3N,"[Element Li, Element N]",Li3 N1,crystal_system=<CrystalSystem.hex_: 'Hexagonal'> symbol='P6/mmm' number=191 point_group='6/mmm' symprec=0.1 version='1.16.2',hex_,1.3296451147630064,43.49737902678387,51.73306123579657,34.187935334421084,0.2292218010333101,False,True
233,SrAlSiH,"[Element Al, Element H, Element Si, Element Sr]",Sr1 Al1 Si1 H1,crystal_system=<CrystalSystem.trig: 'Trigonal'> symbol='P3m1' number=156 point_group='3m' symprec=0.1 version='1.16.2',trig,3.1024453067826654,76.91066305597447,51.883295718807354,40.12869441042758,0.19254531760366173,False,True
234,AlAgSe2,"[Element Ag, Element Al, Element Se]",Al1 Ag1 Se2,crystal_system=<CrystalSystem.tet: 'Tetragonal'> symbol='I-42d' number=122 point_group='-42m' symprec=0.1 version='1.16.2',tet,4.941582476882666,196.76109454324234,51.884670871205415,17.933113044110556,0.34503649412799375,False,True
235,CdGeAs2,"[Element As, Element Cd, Element Ge]",Cd1 Ge1 As2,crystal_system=<CrystalSystem.tet: 'Tetragonal'> symbol='I-42d' number=122 point_group='-42m' symprec=0.1 version='1.16.2',tet,5.494970403792506,202.40505823068398,51.93082304556236,26.812248142835593,0.2797517347118202,False,True
236,PbS,"[Element Pb, Element S]",Pb1 S1,crystal_system=<CrystalSystem.cubic: 'Cubic'> symbol='Fm-3m' number=225 point_group='mmm' symprec=0.1 version='1.16.2',cubic,7.445972212994699,213.4355962686329,51.9569838813854,29.358100196888532,0.2622557052598666,False,True
237,NaTiS2,"[Element Na, Element S, Element Ti]",Na1 Ti1 S2,crystal_system=<CrystalSystem.trig: 'Trigonal'> symbol='R-3m' number=166 point_group='-3m' symprec=0.1 version='1.16.2',trig,3.060253286505507,73.24583388308936,51.96100645868047,36.57550189370126,0.21493466499382693,True,True
238,In2Au,"[Element Au, Element In]",In2 Au1,crystal_system=<CrystalSystem.cubic: 'Cubic'> symbol='Fm-3m' number=225 point_group='m-3m' symprec=0.1 version='1.16.2',cubic,9.964386309090813,71.09220876855568,51.980275854026274,17.679421952658508,0.34725783424970397,True,True
239,Cu2SiTe3,"[Element Cu, Element Si, Element Te]",Cu2 Si1 Te3,crystal_system=<CrystalSystem.mono: 'Monoclinic'> symbol='Cc' number=9 point_group='m' symprec=0.1 version='1.16.2',mono,5.737067154666678,311.4248558081254,52.06988044794211,24.96496983891579,0.2933073816805257,True,False
240,SrIn2Pt,"[Element In, Element Pt, Element Sr]",Sr1 In2 Pt1,crystal_system=<CrystalSystem.ortho: 'Orthorhombic'> symbol='Cmcm' number=63 point_group='mmm' symprec=0.1 version='1.16.2',ortho,8.6331867033057,197.09074172022304,52.17603799513804,27.32005446559456,0.27709823250530724,True,True
241,InAgS2,"[Element Ag, Element In, Element S]",In1 Ag1 S2,crystal_system=<CrystalSystem.tet: 'Tetragonal'> symbol='I-42d' number=122 point_group='-42m' symprec=0.1 version='1.16.2',tet,4.845347505025015,196.588378662141,52.19929643216189,15.732942276793839,0.36305750863184527,False,True
242,ZnSnAs2,"[Element As, Element Sn, Element Zn]",Zn1 Sn1 As2,crystal_system=<CrystalSystem.tet: 'Tetragonal'> symbol='I-42d' number=122 point_group='-42m' symprec=0.1 version='1.16.2',tet,5.479487910337281,202.4120826406012,52.21037274382173,30.31357337462837,0.2567710552715131,False,True
243,Li2CdPd,"[Element Cd, Element Li, Element Pd]",Li2 Cd1 Pd1,crystal_system=<CrystalSystem.cubic: 'Cubic'> symbol='Fm-3m' number=225 point_group='m-3m' symprec=0.1 version='1.16.2',cubic,6.501898033501222,59.433264842758035,52.21414803685356,13.090240879387231,0.38431596825182074,True,False
244,Sc,[Element Sc],Sc1,crystal_system=<CrystalSystem.hex_: 'Hexagonal'> symbol='P6_3/mmc' number=194 point_group='6/mmm' symprec=0.1 version='1.16.2',hex_,2.9845810382011435,50.02447391787033,52.22816741916708,30.266037319593398,0.2571600698126445,True,True
245,K(Cu2As)2,"[Element As, Element Cu, Element K]",K1 Cu4 As2,crystal_system=<CrystalSystem.trig: 'Trigonal'> symbol='R-3m' number=166 point_group='-3m' symprec=0.1 version='1.16.2',trig,5.899879285861873,124.7190270350025,52.24311652510059,19.222345394238495,0.3361282163473944,True,True
246,RbTiS2,"[Element Rb, Element S, Element Ti]",Rb1 Ti1 S2,crystal_system=<CrystalSystem.trig: 'Trigonal'> symbol='R3m' number=160 point_group='3m' symprec=0.1 version='1.16.2',trig,3.684130763516189,89.00281660073458,52.2452941973428,30.66749568674806,0.25453354175028897,True,True
247,NbInS2,"[Element In, Element Nb, Element S]",Nb1 In1 S2,crystal_system=<CrystalSystem.hex_: 'Hexagonal'> symbol='P-6m2' number=187 point_group='-6m2' symprec=0.1 version='1.16.2',hex_,5.346578352695928,84.43247038336169,52.263943189195324,26.489820289841028,0.28320398978473404,True,True
248,YMgCd2,"[Element Cd, Element Mg, Element Y]",Y1 Mg1 Cd2,crystal_system=<CrystalSystem.cubic: 'Cubic'> symbol='Fm-3m' number=225 point_group='m-3m' symprec=0.1 version='1.16.2',cubic,6.09063866959886,92.16057357349472,52.265183752502715,24.54181738160627,0.29699316060071634,True,False
249,SrAlSi,"[Element Al, Element Si, Element Sr]",Sr1 Al1 Si1,crystal_system=<CrystalSystem.hex_: 'Hexagonal'> symbol='P-6m2' number=187 point_group='-6m2' symprec=0.1 version='1.16.2',hex_,3.1694796511281647,74.7559309328347,52.28777882433376,38.815216582168176,0.2024567896470649,True,True
250,Ag2Te,"[Element Ag, Element Te]",Ag2 Te1,crystal_system=<CrystalSystem.mono: 'Monoclinic'> symbol='P2_1/c' number=14 point_group='2/m' symprec=0.1 version='1.16.2',mono,8.246593148191321,276.53771439462673,52.32031709028362,14.359401483832725,0.3742758704414339,True,True
251,CaCuSb,"[Element Ca, Element Cu, Element Sb]",Ca1 Cu1 Sb1,crystal_system=<CrystalSystem.hex_: 'Hexagonal'> symbol='P6_3/mmc' number=194 point_group='6/mmm' symprec=0.1 version='1.16.2',hex_,5.335009201296573,140.30301462108739,52.4246189980439,34.294535941151366,0.23147029568126373,True,True
252,SrLi4N2,"[Element Li, Element N, Element Sr]",Sr1 Li4 N2,crystal_system=<CrystalSystem.tet: 'Tetragonal'> symbol='I4_1/amd' number=141 point_group='4/mmm' symprec=0.1 version='1.16.2',tet,2.4474132327321096,194.58666118516553,52.49011206512711,29.083372472920416,0.2661528198994568,False,True
253,Sr3MnN3,"[Element Mn, Element N, Element Sr]",Sr3 Mn1 N3,crystal_system=<CrystalSystem.hex_: 'Hexagonal'> symbol='P6_3/m' number=176 point_group='6/m' symprec=0.1 version='1.16.2',hex_,4.457509408596516,268.0833765563128,52.624843583557166,31.667198803438602,0.24939134344240835,True,True
254,Te2Pd,"[Element Pd, Element Te]",Te2 Pd1,crystal_system=<CrystalSystem.trig: 'Trigonal'> symbol='P-3m1' number=164 point_group='-3m' symprec=0.1 version='1.16.2',trig,7.998445041439257,75.0751094935122,52.66822448428749,21.81126494255561,0.3180534066902988,True,True
255,BaCuAs,"[Element As, Element Ba, Element Cu]",Ba1 Cu1 As1,crystal_system=<CrystalSystem.hex_: 'Hexagonal'> symbol='P6_3/mmc' number=194 point_group='6/mmm' symprec=0.1 version='1.16.2',hex_,6.025346587761634,152.0137309901874,52.672963124499994,33.48179166514437,0.23774146793983594,True,True
256,Ba2ZnN2,"[Element Ba, Element N, Element Zn]",Ba2 Zn1 N2,crystal_system=<CrystalSystem.tet: 'Tetragonal'> symbol='I4/mmm' number=139 point_group='4/mmm' symprec=0.1 version='1.16.2',tet,5.345536883012247,114.33935544170629,52.67844503562694,24.168156624390946,0.3010343567396936,False,True
257,Ag3P11,"[Element Ag, Element P]",Ag3 P11,crystal_system=<CrystalSystem.mono: 'Monoclinic'> symbol='Cm' number=8 point_group='m' symprec=0.1 version='1.16.2',mono,3.854411510979593,286.19742275452717,52.845815488986766,32.423436018645305,0.24531352497476014,False,True
258,Mg2Si,"[Element Mg, Element Si]",Mg2 Si1,crystal_system=<CrystalSystem.cubic: 'Cubic'> symbol='Fm-3m' number=225 point_group='m-3m' symprec=0.1 version='1.16.2',cubic,1.9993371522115477,63.69904837788204,52.855579079281654,44.57076386610882,0.1708823066354932,False,True
259,Ca2PdAu,"[Element Au, Element Ca, Element Pd]",Ca2 Pd1 Au1,crystal_system=<CrystalSystem.cubic: 'Cubic'> symbol='Fm-3m' number=225 point_group='m-3m' symprec=0.1 version='1.16.2',cubic,7.0432945213735945,90.42464681775358,52.85831718669091,22.450783014911938,0.3139702368758044,True,False
260,CaCdAu,"[Element Au, Element Ca, Element Cd]",Ca1 Cd1 Au1,crystal_system=<CrystalSystem.ortho: 'Orthorhombic'> symbol='Pnma' number=62 point_group='mmm' symprec=0.1 version='1.16.2',ortho,8.184793851604315,283.59156498569075,52.865257192741204,19.291397981864876,0.3373289257209601,True,True
261,LaAl,"[Element Al, Element La]",La1 Al1,crystal_system=<CrystalSystem.ortho: 'Orthorhombic'> symbol='Cmcm' number=63 point_group='mmm' symprec=0.1 version='1.16.2',ortho,5.19824043572421,211.96546164247079,52.87273385787137,33.969667857255104,0.23542205988122666,True,True
262,Cu2SnHgSe4,"[Element Cu, Element Hg, Element Se, Element Sn]",Cu2 Sn1 Hg1 Se4,crystal_system=<CrystalSystem.tet: 'Tetragonal'> symbol='I-42m' number=121 point_group='-42m' symprec=0.1 version='1.16.2',tet,6.197905257927689,204.21674116326383,52.88514580239178,20.012061489661818,0.3319890723280051,True,True
263,InCuSe2,"[Element Cu, Element In, Element Se]",In1 Cu1 Se2,crystal_system=<CrystalSystem.tet: 'Tetragonal'> symbol='I-42d' number=122 point_group='-42m' symprec=0.1 version='1.16.2',tet,5.683753701601715,196.4943411658216,52.91569383201835,21.63549248497676,0.3200866191715516,True,True
264,PrBS3,"[Element B, Element Pr, Element S]",Pr1 B1 S3,crystal_system=<CrystalSystem.ortho: 'Orthorhombic'> symbol='Pna2_1' number=33 point_group='mm2' symprec=0.1 version='1.16.2',ortho,3.96788955659386,415.0017737104433,52.975759898834,22.162000691734633,0.3164275601165768,False,True
265,SrGaCu2,"[Element Cu, Element Ga, Element Sr]",Sr1 Ga1 Cu2,crystal_system=<CrystalSystem.trig: 'Trigonal'> symbol='R-3m' number=166 point_group='-3m' symprec=0.1 version='1.16.2',trig,5.704057163821924,82.80341796082257,53.001458417525626,25.615457276160754,0.29187942385192966,True,True
266,SrIn4Pt,"[Element In, Element Pt, Element Sr]",Sr1 In4 Pt1,crystal_system=<CrystalSystem.ortho: 'Orthorhombic'> symbol='Cmcm' number=63 point_group='mmm' symprec=0.1 version='1.16.2',ortho,8.315754732690785,296.32430827620846,53.07261058784117,26.24791486196989,0.28771351039576315,True,True
267,Y2In,"[Element In, Element Y]",Y2 In1,crystal_system=<CrystalSystem.hex_: 'Hexagonal'> symbol='P6_3/mmc' number=194 point_group='6/mmm' symprec=0.1 version='1.16.2',hex_,5.6964388772561305,170.6059028694426,53.12359355901414,25.945284269696337,0.2899916209869349,True,True
268,Na2GeO3,"[Element Ge, Element Na, Element O]",Na2 Ge1 O3,crystal_system=<CrystalSystem.ortho: 'Orthorhombic'> symbol='Cmc2_1' number=36 point_group='mm2' symprec=0.1 version='1.16.2',ortho,3.3794952993989162,163.7376232579079,53.187350770384185,27.68974492588605,0.2781884179394489,False,True
269,SrAl4,"[Element Al, Element Sr]",Sr1 Al4,crystal_system=<CrystalSystem.tet: 'Tetragonal'> symbol='I4/mmm' number=139 point_group='4/mmm' symprec=0.1 version='1.16.2',tet,2.9331176178106713,110.70542372145513,53.235249254256445,30.06306804973257,0.26237085170435026,True,True
270,CaSi,"[Element Ca, Element Si]",Ca1 Si1,crystal_system=<CrystalSystem.ortho: 'Orthorhombic'> symbol='Cmcm' number=63 point_group='mmm' symprec=0.1 version='1.16.2',ortho,2.38056216041618,95.09363506508987,53.26869169249734,37.79330817441446,0.21310658298284574,True,True
271,CaSbAu,"[Element Au, Element Ca, Element Sb]",Ca1 Sb1 Au1,crystal_system=<CrystalSystem.hex_: 'Hexagonal'> symbol='P6_3/mmc' number=194 point_group='6/mmm' symprec=0.1 version='1.16.2',hex_,7.722824663910833,154.29820824065115,53.3045687145441,23.74440993988747,0.30607110826708955,True,True
272,CdS,"[Element Cd, Element S]",Cd1 S1,crystal_system=<CrystalSystem.hex_: 'Hexagonal'> symbol='P6_3mc' number=186 point_group='6mm' symprec=0.1 version='1.16.2',hex_,4.702284793707707,102.03892478274858,53.31235566206108,17.60120468376528,0.3512894894305942,False,True
273,Sr(CdP)2,"[Element Cd, Element P, Element Sr]",Sr1 Cd2 P2,crystal_system=<CrystalSystem.trig: 'Trigonal'> symbol='P-3m1' number=164 point_group='-3m' symprec=0.1 version='1.16.2',trig,5.166017042088107,120.3419240902255,53.39113038101512,34.041097882399455,0.2370863158571584,False,True