,Formula,Elements,Composition,Symmetry,Crystal system,Density [g/m$^3$],Volume [$\mathring{A}^3$],Bulk modulus[GPa],Shear modulus [GPa],Poisson,Metal,Experimental report
2335,Ti2TcNi,"[Element Ni, Element Tc, Element Ti]",Ti2 Tc1 Ni1,crystal_system=<CrystalSystem.cubic: 'Cubic'> symbol='Fm-3m' number=225 point_group='m-3m' symprec=0.1 version='1.16.2',cubic,7.456156350729258,56.217377890589404,176.65665343867198,72.21950863216765,0.32010767618127706,True,False
2336,CeO2,"[Element Ce, Element O]",Ce1 O2,crystal_system=<CrystalSystem.cubic: 'Cubic'> symbol='Fm-3m' number=225 point_group='m-3m' symprec=0.1 version='1.16.2',cubic,6.994759103664203,40.85964149792201,176.67124429410433,71.8180072707618,0.32100144655258206,False,True
2337,ZrVP,"[Element P, Element V, Element Zr]",Zr1 V1 P1,crystal_system=<CrystalSystem.ortho: 'Orthorhombic'> symbol='Pnma' number=62 point_group='mmm' symprec=0.1 version='1.16.2',ortho,6.266139002696734,183.52896952305758,176.70919277691019,106.77998949965952,0.24851926348574507,True,True
2338,MgSiRh2,"[Element Mg, Element Rh, Element Si]",Mg1 Si1 Rh2,crystal_system=<CrystalSystem.cubic: 'Cubic'> symbol='Fm-3m' number=225 point_group='m-3m' symprec=0.1 version='1.16.2',cubic,8.11833066214515,52.81303455696248,176.74558384719126,77.75047261749452,0.3081773690433191,True,False
2339,Fe3Ge,"[Element Fe, Element Ge]",Fe3 Ge1,crystal_system=<CrystalSystem.cubic: 'Cubic'> symbol='Fm-3m' number=225 point_group='m-3m' symprec=0.1 version='1.16.2',cubic,8.386255270913324,47.55638332449908,176.82490458022352,45.98420371614902,0.380344802577557,True,True
2340,HfGePt,"[Element Ge, Element Hf, Element Pt]",Hf1 Ge1 Pt1,crystal_system=<CrystalSystem.ortho: 'Orthorhombic'> symbol='Pnma' number=62 point_group='mmm' symprec=0.1 version='1.16.2',ortho,14.767225292905115,200.70277641659416,176.83316665832268,78.9071062261977,0.30577719680934085,True,True
2341,P2Pt,"[Element P, Element Pt]",P2 Pt1,crystal_system=<CrystalSystem.cubic: 'Cubic'> symbol='Pa-3' number=205 point_group='m-3' symprec=0.1 version='1.16.2',cubic,9.109869824238285,187.40592135098834,176.88639753670037,117.30394973143262,0.22844763367048954,False,True
2342,FeH,"[Element Fe, Element H]",Fe1 H1,crystal_system=<CrystalSystem.cubic: 'Cubic'> symbol='Fm-3m' number=225 point_group='m-3m' symprec=0.1 version='1.16.2',cubic,6.919330266879925,13.643882323835907,176.89165383349751,90.94029504449384,0.2805548671296668,True,True
2343,CoSi2,"[Element Co, Element Si]",Co1 Si2,crystal_system=<CrystalSystem.cubic: 'Cubic'> symbol='Fm-3m' number=225 point_group='m-3m' symprec=0.1 version='1.16.2',cubic,5.098238012582362,37.49040591187122,176.91166137646638,64.35951759949118,0.33777488093274705,True,True
2344,SnRh2,"[Element Rh, Element Sn]",Sn1 Rh2,crystal_system=<CrystalSystem.ortho: 'Orthorhombic'> symbol='Pnma' number=62 point_group='mmm' symprec=0.1 version='1.16.2',ortho,11.368768294230662,189.60006378371358,177.00524894747272,55.160534250694425,0.3588465551322803,True,True
2345,YB2C,"[Element B, Element C, Element Y]",Y1 B2 C1,crystal_system=<CrystalSystem.tet: 'Tetragonal'> symbol='P4_2/mbc' number=135 point_group='4/mmm' symprec=0.1 version='1.16.2',tet,4.7186754118763155,344.9782520363805,177.1439484923528,139.84631989792177,0.18750736927410097,True,True
2346,ScTaO4,"[Element O, Element Sc, Element Ta]",Sc1 Ta1 O4,crystal_system=<CrystalSystem.mono: 'Monoclinic'> symbol='P2/c' number=13 point_group='2/m' symprec=0.1 version='1.16.2',mono,6.850006173714704,140.5524534342617,177.14738881686458,72.15283457940093,0.3206922660319993,False,True
2347,Be2CuRh,"[Element Be, Element Cu, Element Rh]",Be2 Cu1 Rh1,crystal_system=<CrystalSystem.cubic: 'Cubic'> symbol='Fm-3m' number=225 point_group='m-3m' symprec=0.1 version='1.16.2',cubic,7.619871894724433,40.20138176192615,177.21739844279517,70.69195013153892,0.32395790513354733,True,False
2348,CuSnRh2,"[Element Cu, Element Rh, Element Sn]",Cu1 Sn1 Rh2,crystal_system=<CrystalSystem.cubic: 'Cubic'> symbol='Fm-3m' number=225 point_group='m-3m' symprec=0.1 version='1.16.2',cubic,11.01818136610919,58.485188484950214,177.22233549687138,65.42529097666339,0.33564025715744,True,True
2349,ZnCo2Ge,"[Element Co, Element Ge, Element Zn]",Zn1 Co2 Ge1,crystal_system=<CrystalSystem.cubic: 'Cubic'> symbol='Fm-3m' number=225 point_group='m-3m' symprec=0.1 version='1.16.2',cubic,9.210308308302459,46.139335255053844,177.22915385717675,22.3579334031036,0.43946903916385616,True,True
2350,Hf2CS,"[Element C, Element Hf, Element S]",Hf2 C1 S1,crystal_system=<CrystalSystem.hex_: 'Hexagonal'> symbol='P6_3/mmc' number=194 point_group='6/mmm' symprec=0.1 version='1.16.2',hex_,11.273995032154115,118.14244299970449,177.26112188091207,123.1710809667903,0.2179092035994155,True,True
2351,ZrZnN2,"[Element N, Element Zn, Element Zr]",Zr1 Zn1 N2,crystal_system=<CrystalSystem.trig: 'Trigonal'> symbol='P3m1' number=156 point_group='3m' symprec=0.1 version='1.16.2',trig,6.225274037196338,49.25286162103453,177.28639875434328,79.32650263343112,0.3053132555866554,False,False
2352,HfMnRh2,"[Element Hf, Element Mn, Element Rh]",Hf1 Mn1 Rh2,crystal_system=<CrystalSystem.cubic: 'Cubic'> symbol='Fm-3m' number=225 point_group='m-3m' symprec=0.1 version='1.16.2',cubic,11.683906695652016,62.42548941870619,177.35619183307932,68.37776597102571,0.3291826565128334,True,False
2353,PrRhO3,"[Element O, Element Pr, Element Rh]",Pr1 Rh1 O3,crystal_system=<CrystalSystem.ortho: 'Orthorhombic'> symbol='Pnma' number=62 point_group='mmm' symprec=0.1 version='1.16.2',ortho,7.844914415455231,247.07173136147833,177.39710328273642,61.77072518338316,0.3440033498603216,False,True
2354,TiNiO3,"[Element Ni, Element O, Element Ti]",Ti1 Ni1 O3,crystal_system=<CrystalSystem.trig: 'Trigonal'> symbol='R-3' number=148 point_group='-3' symprec=0.1 version='1.16.2',trig,5.123127762259021,100.19293107218304,177.49277549056612,82.27987477638104,0.2992384454343103,True,True
2355,Al2PdRu,"[Element Al, Element Pd, Element Ru]",Al2 Pd1 Ru1,crystal_system=<CrystalSystem.cubic: 'Cubic'> symbol='Fm-3m' number=225 point_group='m-3m' symprec=0.1 version='1.16.2',cubic,8.023084513228204,54.11298460804795,177.62027318420826,81.77383271288176,0.30043307252983137,True,False
2356,FeSbO4,"[Element Fe, Element O, Element Sb]",Fe1 Sb1 O4,crystal_system=<CrystalSystem.ortho: 'Orthorhombic'> symbol='Cmmm' number=65 point_group='mmm' symprec=0.1 version='1.16.2',ortho,6.018811158576185,66.65611286382993,177.65148000714476,92.81672296668648,0.2775143811593749,False,False
2357,TiAlCo2,"[Element Al, Element Co, Element Ti]",Ti1 Al1 Co2,crystal_system=<CrystalSystem.cubic: 'Cubic'> symbol='Fm-3m' number=225 point_group='m-3m' symprec=0.1 version='1.16.2',cubic,6.564753891622506,48.746788217865344,177.6970248490211,90.02306968676784,0.2832907409023949,True,True
2358,MgSnIr2,"[Element Ir, Element Mg, Element Sn]",Mg1 Sn1 Ir2,crystal_system=<CrystalSystem.cubic: 'Cubic'> symbol='Fm-3m' number=225 point_group='m-3m' symprec=0.1 version='1.16.2',cubic,13.901838888312692,63.00243278430109,177.8121624869865,5.568146623987573,0.48450436339910014,True,False
2359,MgZrIr2,"[Element Ir, Element Mg, Element Zr]",Mg1 Zr1 Ir2,crystal_system=<CrystalSystem.cubic: 'Cubic'> symbol='Fm-3m' number=225 point_group='m-3m' symprec=0.1 version='1.16.2',cubic,12.744927989871883,65.14027337104487,177.86936149303972,79.41604319194593,0.30567801590374244,True,False
2360,HfScRu2,"[Element Hf, Element Ru, Element Sc]",Hf1 Sc1 Ru2,crystal_system=<CrystalSystem.cubic: 'Cubic'> symbol='Fm-3m' number=225 point_group='m-3m' symprec=0.1 version='1.16.2',cubic,10.71187660580062,65.97369061252081,178.02270627873844,80.03757589826202,0.3045021160416007,True,False
2361,Sc3FeC4,"[Element C, Element Fe, Element Sc]",Sc3 Fe1 C4,crystal_system=<CrystalSystem.ortho: 'Orthorhombic'> symbol='Immm' number=71 point_group='mmm' symprec=0.1 version='1.16.2',ortho,4.407966160390777,89.94236354570273,178.04129753387176,120.44935159726138,0.2239819546596095,True,True
2362,ScSbRu2,"[Element Ru, Element Sb, Element Sc]",Sc1 Sb1 Ru2,crystal_system=<CrystalSystem.cubic: 'Cubic'> symbol='Fm-3m' number=225 point_group='m-3m' symprec=0.1 version='1.16.2',cubic,9.556234215873271,64.09424863247766,178.15192180049027,101.79942033348786,0.2600033226859375,True,False
2363,NbH2,"[Element H, Element Nb]",Nb1 H2,crystal_system=<CrystalSystem.cubic: 'Cubic'> symbol='Fm-3m' number=225 point_group='m-3m' symprec=0.1 version='1.16.2',cubic,6.609680600585303,23.847161541513014,178.27742076116965,80.54339706181781,0.3036726123986493,True,True
2364,V3Sb,"[Element Sb, Element V]",V3 Sb1,crystal_system=<CrystalSystem.cubic: 'Cubic'> symbol='Pm-3n' number=223 point_group='m-3m' symprec=0.1 version='1.16.2',cubic,7.705662466442748,118.34369629307598,178.28601398003286,79.30797059769742,0.30630325764041666,True,True
2365,ThN,"[Element N, Element Th]",Th1 N1,crystal_system=<CrystalSystem.cubic: 'Cubic'> symbol='Fm-3m' number=225 point_group='m-3m' symprec=0.1 version='1.16.2',cubic,11.828531791617602,34.540798749152934,178.4258176115594,88.16149713705735,0.2878826054875439,True,True
2366,TiAsRh,"[Element As, Element Rh, Element Ti]",Ti1 As1 Rh1,crystal_system=<CrystalSystem.ortho: 'Orthorhombic'> symbol='Pnma' number=62 point_group='mmm' symprec=0.1 version='1.16.2',ortho,8.339791458410206,179.75215424514667,178.45621830010117,75.80780202011174,0.3139461987735325,True,True
2367,HfPd3,"[Element Hf, Element Pd]",Hf1 Pd3,crystal_system=<CrystalSystem.hex_: 'Hexagonal'> symbol='P6_3/mmc' number=194 point_group='6/mmm' symprec=0.1 version='1.16.2',hex_,13.124674214746374,251.90212172169248,178.51667442088856,84.61845620495887,0.2953335448193083,True,True
2368,CoPtO2,"[Element Co, Element O, Element Pt]",Co1 Pt1 O2,crystal_system=<CrystalSystem.trig: 'Trigonal'> symbol='R-3m' number=166 point_group='2/m' symprec=0.1 version='1.16.2',trig,11.571756001215531,164.17239814599654,178.58552812355046,58.77269553094098,0.3517162295000782,True,True
2369,AlCo,"[Element Al, Element Co]",Al1 Co1,crystal_system=<CrystalSystem.cubic: 'Cubic'> symbol='Pm-3m' number=221 point_group='m-3m' symprec=0.1 version='1.16.2',cubic,6.3656854616754375,22.411533274498698,178.5980919188362,117.71683985049808,0.22980526947619384,True,True
2370,Ta3Sn,"[Element Sn, Element Ta]",Ta3 Sn1,crystal_system=<CrystalSystem.cubic: 'Cubic'> symbol='Pm-3n' number=223 point_group='m-3m' symprec=0.1 version='1.16.2',cubic,14.766159622202728,148.7909777461229,178.65997323401194,26.863417968468276,0.42840791698898684,True,True
2371,HfNbP,"[Element Hf, Element Nb, Element P]",Hf1 Nb1 P1,crystal_system=<CrystalSystem.ortho: 'Orthorhombic'> symbol='Pnma' number=62 point_group='mmm' symprec=0.1 version='1.16.2',ortho,9.9672906284152,201.49806084032008,178.72481886695599,99.49763022900916,0.26521472558625014,True,True
2372,LiVRh2,"[Element Li, Element Rh, Element V]",Li1 V1 Rh2,crystal_system=<CrystalSystem.cubic: 'Cubic'> symbol='Fm-3m' number=225 point_group='m-3m' symprec=0.1 version='1.16.2',cubic,8.654625916725147,50.59414035588675,178.7569474323409,81.84322496259657,0.3013880544926486,True,False
2373,BPd2,"[Element B, Element Pd]",B1 Pd2,crystal_system=<CrystalSystem.ortho: 'Orthorhombic'> symbol='Pnnm' number=58 point_group='mmm' symprec=0.1 version='1.16.2',ortho,9.719012841300927,76.42365101236882,178.9958645551797,47.548362492330135,0.3779843344329144,True,True
2374,TiCo2Ge,"[Element Co, Element Ge, Element Ti]",Ti1 Co2 Ge1,crystal_system=<CrystalSystem.cubic: 'Cubic'> symbol='Fm-3m' number=225 point_group='m-3m' symprec=0.1 version='1.16.2',cubic,8.094581150251047,48.900408703741434,179.0775286709514,78.02512956453413,0.3097745198742169,True,True
2375,Ti2TcPd,"[Element Pd, Element Tc, Element Ti]",Ti2 Tc1 Pd1,crystal_system=<CrystalSystem.cubic: 'Cubic'> symbol='Fm-3m' number=225 point_group='m-3m' symprec=0.1 version='1.16.2',cubic,8.25222925340951,60.39791524094282,179.17796862020845,63.79756342066619,0.34085924316354993,True,False
2376,V,[Element V],V1,crystal_system=<CrystalSystem.cubic: 'Cubic'> symbol='Im-3m' number=229 point_group='m-3m' symprec=0.1 version='1.16.2',cubic,6.37754470312308,13.263780153478194,179.4609068905351,30.49998237448794,0.41957925013932956,True,True
2377,LiPt3,"[Element Li, Element Pt]",Li1 Pt3,crystal_system=<CrystalSystem.cubic: 'Cubic'> symbol='Pm-3m' number=221 point_group='m-3m' symprec=0.1 version='1.16.2',cubic,17.187882106272873,57.212378196855774,179.46125519993737,84.08692153742312,0.2973713703914111,True,False
2378,LuN,"[Element Lu, Element N]",Lu1 N1,crystal_system=<CrystalSystem.cubic: 'Cubic'> symbol='Fm-3m' number=225 point_group='m-3m' symprec=0.1 version='1.16.2',cubic,11.906769120713001,26.354606210014218,179.46948314120544,145.2690670791278,0.18127721716907289,False,True
2379,AlNi3,"[Element Al, Element Ni]",Al1 Ni3,crystal_system=<CrystalSystem.cubic: 'Cubic'> symbol='Pm-3m' number=221 point_group='m-3m' symprec=0.1 version='1.16.2',cubic,7.71114783966961,43.72785438535495,179.50780680262065,84.35083822628161,0.2968670954281001,True,True
2380,V2GeC,"[Element C, Element Ge, Element V]",V2 Ge1 C1,crystal_system=<CrystalSystem.hex_: 'Hexagonal'> symbol='P6_3/mmc' number=194 point_group='6/mmm' symprec=0.1 version='1.16.2',hex_,6.58717802088216,94.04527860200838,179.53632588425793,101.32934075484354,0.26248646664810177,True,True
2381,Si4Rh3,"[Element Rh, Element Si]",Si4 Rh3,crystal_system=<CrystalSystem.ortho: 'Orthorhombic'> symbol='Pnma' number=62 point_group='mmm' symprec=0.1 version='1.16.2',ortho,7.03455322794291,397.5712833029233,179.5806291965277,88.28061685081786,0.2888099321181326,True,True
2382,ZrMn2,"[Element Mn, Element Zr]",Zr1 Mn2,crystal_system=<CrystalSystem.cubic: 'Cubic'> symbol='Fd-3m' number=227 point_group='m-3m' symprec=0.1 version='1.16.2',cubic,7.734242181151935,86.35223669503452,179.5808884722969,48.76804764982771,0.37548810626295026,True,True
2383,Sc3CoC4,"[Element C, Element Co, Element Sc]",Sc3 Co1 C4,crystal_system=<CrystalSystem.ortho: 'Orthorhombic'> symbol='Immm' number=71 point_group='mmm' symprec=0.1 version='1.16.2',ortho,4.526741586069599,88.71523936193758,179.67487013724238,119.6521113115948,0.22751706406472608,True,True
2384,SiPd2,"[Element Pd, Element Si]",Si1 Pd2,crystal_system=<CrystalSystem.hex_: 'Hexagonal'> symbol='P-62m' number=189 point_group='-6m2' symprec=0.1 version='1.16.2',hex_,9.422749367303965,127.37244384690827,179.79053212190277,50.584640713608024,0.37138544132348783,True,True
2385,Ti2CS,"[Element C, Element S, Element Ti]",Ti2 C1 S1,crystal_system=<CrystalSystem.hex_: 'Hexagonal'> symbol='P6_3/mmc' number=194 point_group='6/mmm' symprec=0.1 version='1.16.2',hex_,4.648426785622582,99.88732938967091,179.80310239672366,134.4201682820443,0.20076961640515165,True,True
2386,TiSnRh2,"[Element Rh, Element Sn, Element Ti]",Ti1 Sn1 Rh2,crystal_system=<CrystalSystem.cubic: 'Cubic'> symbol='Fm-3m' number=225 point_group='m-3m' symprec=0.1 version='1.16.2',cubic,9.824847568323968,62.93887183824556,179.92806292295512,69.9352746560758,0.3279488875181239,True,False
2387,GaNi3,"[Element Ga, Element Ni]",Ga1 Ni3,crystal_system=<CrystalSystem.cubic: 'Cubic'> symbol='Pm-3m' number=221 point_group='m-3m' symprec=0.1 version='1.16.2',cubic,9.227870415293168,44.231853930116735,179.94290375014472,77.37796555536858,0.3119480026792192,True,True
2388,Ti2MnFe,"[Element Fe, Element Mn, Element Ti]",Ti2 Mn1 Fe1,crystal_system=<CrystalSystem.cubic: 'Cubic'> symbol='Fm-3m' number=225 point_group='m-3m' symprec=0.1 version='1.16.2',cubic,6.002932896432338,57.12701225514282,179.95828633955585,78.16349638179678,0.31029454960489483,True,False
2389,FeP2,"[Element Fe, Element P]",Fe1 P2,crystal_system=<CrystalSystem.ortho: 'Orthorhombic'> symbol='Pnnm' number=58 point_group='mmm' symprec=0.1 version='1.16.2',ortho,5.205722709332147,75.14771676361988,179.9904153317486,153.65594430692846,0.16771210863290434,False,True
2390,Cr2GaC,"[Element C, Element Cr, Element Ga]",Cr2 Ga1 C1,crystal_system=<CrystalSystem.hex_: 'Hexagonal'> symbol='P6_3/mmc' number=194 point_group='6/mmm' symprec=0.1 version='1.16.2',hex_,7.091996499158734,86.97271992901533,179.9936646634955,115.75970808596054,0.23520087806186282,True,True
2391,MnNbGe,"[Element Ge, Element Mn, Element Nb]",Mn1 Nb1 Ge1,crystal_system=<CrystalSystem.hex_: 'Hexagonal'> symbol='P-62m' number=189 point_group='-6m2' symprec=0.1 version='1.16.2',hex_,7.836501907625064,140.16062483176063,180.12936852791879,81.78364584133001,0.30282700318520334,True,True
2392,MnAl2O4,"[Element Al, Element Mn, Element O]",Mn1 Al2 O4,crystal_system=<CrystalSystem.cubic: 'Cubic'> symbol='Fd-3m' number=227 point_group='m-3m' symprec=0.1 version='1.16.2',cubic,4.186127644323647,137.169769855266,180.21967796142005,78.11740295736845,0.3106325686314991,False,True
2393,TiFeSi2,"[Element Fe, Element Si, Element Ti]",Ti1 Fe1 Si2,crystal_system=<CrystalSystem.ortho: 'Orthorhombic'> symbol='Pbam' number=55 point_group='mmm' symprec=0.1 version='1.16.2',ortho,5.202102250249245,612.4261803715698,180.26820572457984,115.99090800149519,0.23509813125504656,True,True
2394,MgAl2O4,"[Element Al, Element Mg, Element O]",Mg1 Al2 O4,crystal_system=<CrystalSystem.cubic: 'Cubic'> symbol='Fd-3m' number=227 point_group='m-3m' symprec=0.1 version='1.16.2',cubic,3.582135921104363,131.89768341011103,180.37559125839107,95.81127958935903,0.27436279929441343,False,True
2395,GaRh,"[Element Ga, Element Rh]",Ga1 Rh1,crystal_system=<CrystalSystem.cubic: 'Cubic'> symbol='Pm-3m' number=221 point_group='m-3m' symprec=0.1 version='1.16.2',cubic,10.551492393571532,27.167376667323634,180.38720930128747,63.382128973600544,0.34273562934225865,True,True
2396,SmAlO3,"[Element Al, Element O, Element Sm]",Sm1 Al1 O3,crystal_system=<CrystalSystem.ortho: 'Orthorhombic'> symbol='Pnma' number=62 point_group='mmm' symprec=0.1 version='1.16.2',ortho,7.181448769432935,208.41780048360832,180.53158990645224,109.68592010407573,0.24737638820411095,False,True
2397,FeSi2,"[Element Fe, Element Si]",Fe1 Si2,crystal_system=<CrystalSystem.ortho: 'Orthorhombic'> symbol='Cmce' number=64 point_group='mmm' symprec=0.1 version='1.16.2',ortho,5.0830939630683405,292.7460250559445,180.659903125974,127.30397057804288,0.2146860717123296,False,True
2398,TiCoSi,"[Element Co, Element Si, Element Ti]",Ti1 Co1 Si1,crystal_system=<CrystalSystem.ortho: 'Orthorhombic'> symbol='Pnma' number=62 point_group='mmm' symprec=0.1 version='1.16.2',ortho,5.833532467734853,153.58307667735627,180.7882866232959,99.95409107761046,0.2665783698344115,True,True
2399,TiO2,"[Element O, Element Ti]",Ti1 O2,crystal_system=<CrystalSystem.mono: 'Monoclinic'> symbol='C2/m' number=12 point_group='2/m' symprec=0.1 version='1.16.2',mono,3.615939061446627,146.70632301220797,180.8271995630326,60.87672719877895,0.3486552900984784,False,True
2400,Ti2MnCo,"[Element Co, Element Mn, Element Ti]",Ti2 Mn1 Co1,crystal_system=<CrystalSystem.cubic: 'Cubic'> symbol='Fm-3m' number=225 point_group='m-3m' symprec=0.1 version='1.16.2',cubic,6.739385687750265,51.645313936656024,180.94123130652994,84.46698310049172,0.29801951584451575,True,False
2401,Si5Pt6,"[Element Pt, Element Si]",Si5 Pt6,crystal_system=<CrystalSystem.mono: 'Monoclinic'> symbol='P2_1/m' number=11 point_group='2/m' symprec=0.1 version='1.16.2',mono,12.916407574477837,337.0678660973641,181.08126578239882,69.4257906105982,0.33002471811434003,True,True
2402,LaAlO3,"[Element Al, Element La, Element O]",La1 Al1 O3,crystal_system=<CrystalSystem.trig: 'Trigonal'> symbol='R-3c' number=167 point_group='-3m' symprec=0.1 version='1.16.2',trig,6.535048660257443,108.69536345095825,181.0832673100188,105.37306880562201,0.2563150941175428,False,True
2403,ZrCr2,"[Element Cr, Element Zr]",Zr1 Cr2,crystal_system=<CrystalSystem.cubic: 'Cubic'> symbol='Fd-3m' number=227 point_group='m-3m' symprec=0.1 version='1.16.2',cubic,7.215733360139488,89.8492531123496,181.14266773865546,55.9502193800277,0.3599793487548667,True,True