,Formula,Elements,Composition,Symmetry,Crystal system,Density [g/m$^3$],Volume [$\mathring{A}^3$],Bulk modulus[GPa],Shear modulus [GPa],Poisson,Metal,Experimental report
1167,ZrGa2,"[Element Ga, Element Zr]",Zr1 Ga2,crystal_system=<CrystalSystem.ortho: 'Orthorhombic'> symbol='Cmmm' number=65 point_group='mmm' symprec=0.1 version='1.16.2',ortho,7.212641187046882,106.21256112962168,99.7755364541222,63.77442647044963,0.2365426416747535,True,True
1168,NaNiO2,"[Element Na, Element Ni, Element O]",Na1 Ni1 O2,crystal_system=<CrystalSystem.mono: 'Monoclinic'> symbol='C2/m' number=12 point_group='2/m' symprec=0.1 version='1.16.2',mono,4.853397000091615,38.89509783640153,99.78324739820994,68.05601121368827,0.22214910661161896,False,True
1169,Cd2GeO4,"[Element Cd, Element Ge, Element O]",Cd2 Ge1 O4,crystal_system=<CrystalSystem.ortho: 'Orthorhombic'> symbol='Pnma' number=62 point_group='mmm' symprec=0.1 version='1.16.2',ortho,6.186916845450345,388.0561525497079,99.83228424261883,33.66270636065238,0.3484388090825752,False,True
1170,ScInAu2,"[Element Au, Element In, Element Sc]",Sc1 In1 Au2,crystal_system=<CrystalSystem.cubic: 'Cubic'> symbol='Fm-3m' number=225 point_group='m-3m' symprec=0.1 version='1.16.2',cubic,11.978519031483804,76.7584194306652,99.89823245961782,23.28257219411226,0.39186899023159116,True,True
1171,FeSn,"[Element Fe, Element Sn]",Fe1 Sn1,crystal_system=<CrystalSystem.hex_: 'Hexagonal'> symbol='P6/mmm' number=191 point_group='6/mmm' symprec=0.1 version='1.16.2',hex_,7.9029645115114615,110.03038025091449,99.92065049757687,53.89012793669034,0.2714273530203632,True,True
1172,BaZrN2,"[Element Ba, Element N, Element Zr]",Ba1 Zr1 N2,crystal_system=<CrystalSystem.tet: 'Tetragonal'> symbol='P4/nmm' number=129 point_group='4/mmm' symprec=0.1 version='1.16.2',tet,5.781184531986169,147.38682252456016,99.95668306744857,39.94102790466569,0.32369161603836855,False,True
1173,ScGeAu,"[Element Au, Element Ge, Element Sc]",Sc1 Ge1 Au1,crystal_system=<CrystalSystem.hex_: 'Hexagonal'> symbol='P6_3mc' number=186 point_group='6mm' symprec=0.1 version='1.16.2',hex_,9.32203045060313,112.06641972582804,100.06127676727462,44.06212629806164,0.3080059092054578,True,True
1174,Sc3GaC,"[Element C, Element Ga, Element Sc]",Sc3 Ga1 C1,crystal_system=<CrystalSystem.cubic: 'Cubic'> symbol='Pm-3m' number=221 point_group='m-3m' symprec=0.1 version='1.16.2',cubic,4.015394573452495,89.57404802447736,100.17193120827336,85.409098186051,0.1680347653194116,True,True
1175,MgCu4Sn,"[Element Cu, Element Mg, Element Sn]",Mg1 Cu4 Sn1,crystal_system=<CrystalSystem.cubic: 'Cubic'> symbol='F-43m' number=216 point_group='-43m' symprec=0.1 version='1.16.2',cubic,7.745156254011222,85.15831509181811,100.27380717773744,55.041881154326774,0.26799287505072333,True,True
1176,LiPdAu2,"[Element Au, Element Li, Element Pd]",Li1 Pd1 Au2,crystal_system=<CrystalSystem.cubic: 'Cubic'> symbol='Fm-3m' number=225 point_group='m-3m' symprec=0.1 version='1.16.2',cubic,13.272644088161679,63.4675147476847,100.32395741483148,5.442731532051245,0.4733560437477367,True,False
1177,ZrZn3,"[Element Zn, Element Zr]",Zr1 Zn3,crystal_system=<CrystalSystem.hex_: 'Hexagonal'> symbol='P6_3/mmc' number=194 point_group='6/mmm' symprec=0.1 version='1.16.2',hex_,7.4443496606692126,128.23782788040813,100.40905981271328,38.63883086624516,0.32946736495520645,True,False
1178,CaMgSiO4,"[Element Ca, Element Mg, Element O, Element Si]",Ca1 Mg1 Si1 O4,crystal_system=<CrystalSystem.ortho: 'Orthorhombic'> symbol='Pnma' number=62 point_group='mmm' symprec=0.1 version='1.16.2',ortho,2.957136984745377,351.4454325096661,100.6957197175482,54.29342985053656,0.2714798524700854,False,True
1179,Y(Al2Cu)4,"[Element Al, Element Cu, Element Y]",Y1 Al8 Cu4,crystal_system=<CrystalSystem.tet: 'Tetragonal'> symbol='I4/mmm' number=139 point_group='4/mmm' symprec=0.1 version='1.16.2',tet,4.773598615677039,194.43304001492848,100.79801887962805,60.16326547056959,0.2510879171304944,True,True
1180,YInPt,"[Element In, Element Pt, Element Y]",Y1 In1 Pt1,crystal_system=<CrystalSystem.hex_: 'Hexagonal'> symbol='P-62m' number=189 point_group='-6m2' symprec=0.1 version='1.16.2',hex_,10.167694816000393,195.39414596205964,100.80849312079023,33.776216698929694,0.3493037791244313,True,True
1181,Y4C5,"[Element C, Element Y]",Y4 C5,crystal_system=<CrystalSystem.ortho: 'Orthorhombic'> symbol='Pbam' number=55 point_group='mmm' symprec=0.1 version='1.16.2',ortho,4.772521348444782,289.2591488388468,100.81200672169113,51.70124917008873,0.2810118265701751,True,True
1182,Li2ZrO3,"[Element Li, Element O, Element Zr]",Li2 Zr1 O3,crystal_system=<CrystalSystem.mono: 'Monoclinic'> symbol='C2/c' number=15 point_group='2/m' symprec=0.1 version='1.16.2',mono,4.210744562000371,120.75560586356808,100.86456357761199,58.61918538701766,0.2565735224473257,False,True
1183,Zr3Al,"[Element Al, Element Zr]",Zr3 Al1,crystal_system=<CrystalSystem.cubic: 'Cubic'> symbol='Pm-3m' number=221 point_group='m-3m' symprec=0.1 version='1.16.2',cubic,5.954732324883045,83.84036747892554,100.98051858637488,54.9726469754734,0.2696124662469586,True,True
1184,NiAsSe,"[Element As, Element Ni, Element Se]",Ni1 As1 Se1,crystal_system=<CrystalSystem.cubic: 'Cubic'> symbol='P2_13' number=198 point_group='23' symprec=0.1 version='1.16.2',cubic,7.088857243871119,199.17968718452167,101.00128973358434,54.2382378304655,0.27226268923951724,True,True
1185,SnPd,"[Element Pd, Element Sn]",Sn1 Pd1,crystal_system=<CrystalSystem.ortho: 'Orthorhombic'> symbol='Pnma' number=62 point_group='mmm' symprec=0.1 version='1.16.2',ortho,9.560706556400199,156.40566222102117,101.03871532866438,35.97740428139111,0.3408518640961087,True,True
1186,Sc2InNi2,"[Element In, Element Ni, Element Sc]",Sc2 In1 Ni2,crystal_system=<CrystalSystem.tet: 'Tetragonal'> symbol='P4/mbm' number=127 point_group='4/mmm' symprec=0.1 version='1.16.2',tet,6.307926580423214,169.59209379935942,101.05825209734525,43.61432649133772,0.31135078067646954,True,True
1187,CaMg2N2,"[Element Ca, Element Mg, Element N]",Ca1 Mg2 N2,crystal_system=<CrystalSystem.trig: 'Trigonal'> symbol='P-3m1' number=164 point_group='-3m' symprec=0.1 version='1.16.2',trig,2.9528593961363976,65.62697637431359,101.14522615381426,73.18795026091625,0.20851025528113143,False,True
1188,Ca(CoP)2,"[Element Ca, Element Co, Element P]",Ca1 Co2 P2,crystal_system=<CrystalSystem.tet: 'Tetragonal'> symbol='I4/mmm' number=139 point_group='4/mmm' symprec=0.1 version='1.16.2',tet,5.187355536127698,70.39022312687278,101.21197167363417,79.73257758516917,0.18803157097042153,True,True
1189,Zr2Ag,"[Element Ag, Element Zr]",Zr2 Ag1,crystal_system=<CrystalSystem.tet: 'Tetragonal'> symbol='I4/mmm' number=139 point_group='4/mmm' symprec=0.1 version='1.16.2',tet,7.54300559155713,63.911047912578965,101.29042876656433,40.189893680267915,0.32478453243718736,True,True
1190,ScS,"[Element S, Element Sc]",Sc1 S1,crystal_system=<CrystalSystem.cubic: 'Cubic'> symbol='Fm-3m' number=225 point_group='m-3m' symprec=0.1 version='1.16.2',cubic,3.601742527824013,35.50954359817303,101.29049245346064,50.98409209305865,0.2844865778565097,True,True
1191,ScSi,"[Element Sc, Element Si]",Sc1 Si1,crystal_system=<CrystalSystem.ortho: 'Orthorhombic'> symbol='Cmcm' number=63 point_group='mmm' symprec=0.1 version='1.16.2',ortho,3.3432871722655575,72.55620702390091,101.32680667643848,70.25318231943261,0.21841178125703004,True,True
1192,NbO2F,"[Element F, Element Nb, Element O]",Nb1 O2 F1,crystal_system=<CrystalSystem.mono: 'Monoclinic'> symbol='Cc' number=9 point_group='m' symprec=0.1 version='1.16.2',mono,4.073915140637289,117.31099616863544,101.432091182992,53.16089070308243,0.27692058229837413,False,False
1193,CdBiO3,"[Element Bi, Element Cd, Element O]",Cd1 Bi1 O3,crystal_system=<CrystalSystem.trig: 'Trigonal'> symbol='R3' number=146 point_group='3' symprec=0.1 version='1.16.2',trig,8.444817808315447,145.26917584693376,101.4477186537199,32.73260604980599,0.3543386543672289,False,False
1194,ScFeGe,"[Element Fe, Element Ge, Element Sc]",Sc1 Fe1 Ge1,crystal_system=<CrystalSystem.hex_: 'Hexagonal'> symbol='P-62m' number=189 point_group='-6m2' symprec=0.1 version='1.16.2',hex_,5.821900761827092,148.40792822051526,101.4933036445462,52.97660434340631,0.27769350083458244,True,True
1195,Sc2AlSi2,"[Element Al, Element Sc, Element Si]",Sc2 Al1 Si2,crystal_system=<CrystalSystem.tet: 'Tetragonal'> symbol='P4/mbm' number=127 point_group='4/mmm' symprec=0.1 version='1.16.2',tet,3.308730082688767,173.71023199329377,101.51575635525987,74.2699714915239,0.20591370901337402,True,True
1196,ScZnCu2,"[Element Cu, Element Sc, Element Zn]",Sc1 Zn1 Cu2,crystal_system=<CrystalSystem.cubic: 'Cubic'> symbol='Fm-3m' number=225 point_group='m-3m' symprec=0.1 version='1.16.2',cubic,6.8333947699650475,57.70286838151094,101.60555094985901,30.47978610803145,0.3636440061690381,True,False
1197,LiSbPd2,"[Element Li, Element Pd, Element Sb]",Li1 Sb1 Pd2,crystal_system=<CrystalSystem.cubic: 'Cubic'> symbol='Fm-3m' number=225 point_group='m-3m' symprec=0.1 version='1.16.2',cubic,8.978595050627803,63.16602654955183,101.65950824740275,11.20398568328157,0.44684722281979994,True,False
1198,CaMg(SiO3)2,"[Element Ca, Element Mg, Element O, Element Si]",Ca1 Mg1 Si2 O6,crystal_system=<CrystalSystem.mono: 'Monoclinic'> symbol='C2/c' number=15 point_group='2/m' symprec=0.1 version='1.16.2',mono,3.1494913064383816,228.3482404620454,101.72445353140958,64.12633791274003,0.2395353766656408,False,True
1199,Sc3AlC,"[Element Al, Element C, Element Sc]",Sc3 Al1 C1,crystal_system=<CrystalSystem.cubic: 'Cubic'> symbol='Pm-3m' number=221 point_group='m-3m' symprec=0.1 version='1.16.2',cubic,3.1482224641314716,91.70294768893667,101.73424117407409,82.81002632488371,0.1798686653047568,True,True
1200,Sn3Pt2,"[Element Pt, Element Sn]",Sn3 Pt2,crystal_system=<CrystalSystem.hex_: 'Hexagonal'> symbol='P6_3/mmc' number=194 point_group='6/mmm' symprec=0.1 version='1.16.2',hex_,11.448232414669265,216.49752371161102,101.78141582167831,31.698801351417927,0.35892543343025385,True,True
1201,ZrHg,"[Element Hg, Element Zr]",Zr1 Hg1,crystal_system=<CrystalSystem.tet: 'Tetragonal'> symbol='P4/mmm' number=123 point_group='4/mmm' symprec=0.1 version='1.16.2',tet,11.420002426160652,84.86312508494308,101.80579683757628,23.841486620403867,0.3913856773065964,True,True
1202,Zn2AgAu,"[Element Ag, Element Au, Element Zn]",Zn2 Ag1 Au1,crystal_system=<CrystalSystem.cubic: 'Cubic'> symbol='Fm-3m' number=225 point_group='m-3m' symprec=0.1 version='1.16.2',cubic,11.63982516675539,62.15028422103171,101.83429818810902,26.3431942184357,0.3809243421472982,True,True
1203,LiMnO2,"[Element Li, Element Mn, Element O]",Li1 Mn1 O2,crystal_system=<CrystalSystem.mono: 'Monoclinic'> symbol='C2/m' number=12 point_group='2/m' symprec=0.1 version='1.16.2',mono,4.243169091621241,36.738538046608326,101.89133050426017,63.204774439811374,0.2429855811437473,False,False
1204,TaSb2,"[Element Sb, Element Ta]",Ta1 Sb2,crystal_system=<CrystalSystem.mono: 'Monoclinic'> symbol='C2/m' number=12 point_group='2/m' symprec=0.1 version='1.16.2',mono,10.306891716090727,136.77168959803913,101.89694295634334,72.61498369247578,0.2120782395565101,True,True
1205,LiZrAu2,"[Element Au, Element Li, Element Zr]",Li1 Zr1 Au2,crystal_system=<CrystalSystem.cubic: 'Cubic'> symbol='Fm-3m' number=225 point_group='m-3m' symprec=0.1 version='1.16.2',cubic,11.494333916148097,71.09139065484493,101.93436574405408,10.793267809597285,0.4488626418302041,True,False
1206,LiAl2Ni,"[Element Al, Element Li, Element Ni]",Li1 Al2 Ni1,crystal_system=<CrystalSystem.cubic: 'Cubic'> symbol='Fm-3m' number=225 point_group='m-3m' symprec=0.1 version='1.16.2',cubic,3.997248652956416,49.683244751491365,101.9982998266693,59.11175591656862,0.25714593923646034,True,False
1207,Sc3SnC,"[Element C, Element Sc, Element Sn]",Sc3 Sn1 C1,crystal_system=<CrystalSystem.cubic: 'Cubic'> symbol='Pm-3m' number=221 point_group='m-3m' symprec=0.1 version='1.16.2',cubic,4.743335711148602,92.97675738586938,102.07584785649485,81.52595446629893,0.1846219767999022,True,True
1208,ZnNiSb,"[Element Ni, Element Sb, Element Zn]",Zn1 Ni1 Sb1,crystal_system=<CrystalSystem.cubic: 'Cubic'> symbol='F-43m' number=216 point_group='-43m' symprec=0.1 version='1.16.2',cubic,8.008301338207616,50.98011462932934,102.085350458394,35.19283621809444,0.3453963206638921,True,True
1209,Y2PdRu,"[Element Pd, Element Ru, Element Y]",Y2 Pd1 Ru1,crystal_system=<CrystalSystem.cubic: 'Cubic'> symbol='Fm-3m' number=225 point_group='m-3m' symprec=0.1 version='1.16.2',cubic,7.839283516688279,81.61568897404561,102.11571389970138,38.656348007420966,0.3319306217439841,True,False
1210,ZrZn2,"[Element Zn, Element Zr]",Zr1 Zn2,crystal_system=<CrystalSystem.cubic: 'Cubic'> symbol='Fd-3m' number=227 point_group='m-3m' symprec=0.1 version='1.16.2',cubic,7.4072618266402985,99.55349873010557,102.13351695050306,59.443390783614305,0.2562756245821593,True,True
1211,Ga3Fe,"[Element Fe, Element Ga]",Ga3 Fe1,crystal_system=<CrystalSystem.tet: 'Tetragonal'> symbol='P4_2/mnm' number=136 point_group='4/mmm' symprec=0.1 version='1.16.2',tet,7.084328261604737,248.47301477035109,102.28136056557646,65.99399331636062,0.23449334547962827,True,True
1212,HfGa3,"[Element Ga, Element Hf]",Hf1 Ga3,crystal_system=<CrystalSystem.tet: 'Tetragonal'> symbol='I4/mmm' number=139 point_group='4/mmm' symprec=0.1 version='1.16.2',tet,9.61250569630084,66.96723355563907,102.31163352164374,70.73646807005028,0.21905547807722395,True,True
1213,Sc2Ni2Sn,"[Element Ni, Element Sc, Element Sn]",Sc2 Ni2 Sn1,crystal_system=<CrystalSystem.tet: 'Tetragonal'> symbol='P4/mbm' number=127 point_group='4/mmm' symprec=0.1 version='1.16.2',tet,6.403894087920448,169.06902230680214,102.32018604644958,35.25755129417581,0.34546017442266064,True,True
1214,ZrGeSe,"[Element Ge, Element Se, Element Zr]",Zr1 Ge1 Se1,crystal_system=<CrystalSystem.tet: 'Tetragonal'> symbol='P4/nmm' number=129 point_group='4/mmm' symprec=0.1 version='1.16.2',tet,6.968104402126317,115.73269142897347,102.38754337196261,67.71386280996416,0.229055312531863,True,True
1215,LiNbO3,"[Element Li, Element Nb, Element O]",Li1 Nb1 O3,crystal_system=<CrystalSystem.trig: 'Trigonal'> symbol='R3c' number=161 point_group='m' symprec=0.1 version='1.16.2',trig,4.577485851594526,429.06236195769645,102.39318737330363,57.0674680822069,0.2649913519519681,False,True
1216,YInPd2,"[Element In, Element Pd, Element Y]",Y1 In1 Pd2,crystal_system=<CrystalSystem.cubic: 'Cubic'> symbol='Fm-3m' number=225 point_group='m-3m' symprec=0.1 version='1.16.2',cubic,8.960141957705087,77.19973075465303,102.4280273040356,27.35599537705604,0.3773787246345675,True,True
1217,KNbO3,"[Element K, Element Nb, Element O]",K1 Nb1 O3,crystal_system=<CrystalSystem.trig: 'Trigonal'> symbol='R3m' number=160 point_group='3m' symprec=0.1 version='1.16.2',trig,4.4997993785183485,66.42558683114699,102.64786166824436,40.58776378953205,0.3253194557823378,False,True
1218,BN,"[Element B, Element N]",B1 N1,crystal_system=<CrystalSystem.hex_: 'Hexagonal'> symbol='P6_3/mmc' number=194 point_group='6/mmm' symprec=0.1 version='1.16.2',hex_,1.956240948754851,42.13260173230655,102.71724225684306,74.52154862689832,0.20789096044333036,False,True
1219,ScAu,"[Element Au, Element Sc]",Sc1 Au1,crystal_system=<CrystalSystem.cubic: 'Cubic'> symbol='Pm-3m' number=221 point_group='m-3m' symprec=0.1 version='1.16.2',cubic,10.307295962871702,38.97450235603529,102.78719246563435,36.80864414433591,0.34004133969040157,True,True
1220,ZrAl3,"[Element Al, Element Zr]",Zr1 Al3,crystal_system=<CrystalSystem.tet: 'Tetragonal'> symbol='I4/mmm' number=139 point_group='4/mmm' symprec=0.1 version='1.16.2',tet,4.15470778913101,137.62349945585115,102.83887363481625,82.65644842427182,0.18304394561421672,True,True
1221,HfZn3,"[Element Hf, Element Zn]",Hf1 Zn3,crystal_system=<CrystalSystem.hex_: 'Hexagonal'> symbol='P6_3/mmc' number=194 point_group='6/mmm' symprec=0.1 version='1.16.2',hex_,9.964062631436901,124.89528427009115,103.04671276586797,-6.0163634751680615,0.5297718158796304,True,False
1222,AsPdS,"[Element As, Element Pd, Element S]",As1 Pd1 S1,crystal_system=<CrystalSystem.cubic: 'Cubic'> symbol='P2_13' number=198 point_group='23' symprec=0.1 version='1.16.2',cubic,6.5848016072549544,215.26540509882292,103.0832574180987,36.46634889200591,0.3417790782893204,True,True
1223,InNi,"[Element In, Element Ni]",In1 Ni1,crystal_system=<CrystalSystem.hex_: 'Hexagonal'> symbol='P6/mmm' number=191 point_group='6/mmm' symprec=0.1 version='1.16.2',hex_,8.455777992923798,102.22209893929593,103.13954284088744,50.034239957343885,0.29120667403940775,True,True
1224,Sc(MnAl2)4,"[Element Al, Element Mn, Element Sc]",Sc1 Mn4 Al8,crystal_system=<CrystalSystem.tet: 'Tetragonal'> symbol='I4/mmm' number=139 point_group='4/mmm' symprec=0.1 version='1.16.2',tet,4.054412621481295,196.81995738702227,103.20664441787605,76.24163634440242,0.20361792018899375,True,True
1225,TaSn2,"[Element Sn, Element Ta]",Ta1 Sn2,crystal_system=<CrystalSystem.ortho: 'Orthorhombic'> symbol='Fddd' number=70 point_group='mmm' symprec=0.1 version='1.16.2',ortho,10.34220139065522,268.69181239434664,103.23320442455977,50.63024614648522,0.28923376113781535,True,True
1226,AgO,"[Element Ag, Element O]",Ag1 O1,crystal_system=<CrystalSystem.ortho: 'Orthorhombic'> symbol='Cccm' number=66 point_group='mmm' symprec=0.1 version='1.16.2',ortho,7.128585428207505,57.707659102207735,103.42077833049832,12.840930963991248,0.44038625270770093,True,False
1227,LiZn2Pt,"[Element Li, Element Pt, Element Zn]",Li1 Zn2 Pt1,crystal_system=<CrystalSystem.cubic: 'Cubic'> symbol='Fm-3m' number=225 point_group='m-3m' symprec=0.1 version='1.16.2',cubic,10.039399890198386,55.052972347874274,103.44041815499469,27.178409089962184,0.3792069502958004,True,False
1228,Ca3Ni7B2,"[Element B, Element Ca, Element Ni]",Ca3 Ni7 B2,crystal_system=<CrystalSystem.trig: 'Trigonal'> symbol='R-3m' number=166 point_group='-3m' symprec=0.1 version='1.16.2',trig,5.777802043079521,158.84867784488765,103.45158482712202,53.711202443860216,0.27870272643388755,True,True
1229,Zr5Sn4,"[Element Sn, Element Zr]",Zr5 Sn4,crystal_system=<CrystalSystem.hex_: 'Hexagonal'> symbol='P6_3/mcm' number=193 point_group='6/mmm' symprec=0.1 version='1.16.2',hex_,7.692895387546717,401.90211138043975,103.55966066513729,62.22812041140996,0.24969052609975878,True,True
1230,Sc3InN,"[Element In, Element N, Element Sc]",Sc3 In1 N1,crystal_system=<CrystalSystem.cubic: 'Cubic'> symbol='Pm-3m' number=221 point_group='m-3m' symprec=0.1 version='1.16.2',cubic,4.920857348347714,88.9827850205707,103.57724609376325,81.26376334931958,0.18903815345604205,True,True
1231,ScNiSb,"[Element Ni, Element Sb, Element Sc]",Sc1 Ni1 Sb1,crystal_system=<CrystalSystem.cubic: 'Cubic'> symbol='F-43m' number=216 point_group='-43m' symprec=0.1 version='1.16.2',cubic,6.6522731462277545,56.26662650851607,103.62492754241902,66.34108655130568,0.23619447653764356,False,True
1232,Sb2Pt,"[Element Pt, Element Sb]",Sb2 Pt1,crystal_system=<CrystalSystem.cubic: 'Cubic'> symbol='Pa-3' number=205 point_group='m-3' symprec=0.1 version='1.16.2',cubic,10.609300083292649,274.59646576081724,103.66711262086994,54.074397835417415,0.27782254797613376,True,True
1233,TiF3,"[Element F, Element Ti]",Ti1 F3,crystal_system=<CrystalSystem.cubic: 'Cubic'> symbol='Pm-3m' number=221 point_group='m-3m' symprec=0.1 version='1.16.2',cubic,2.8913810061866854,120.44610881666335,103.68422319567804,45.11012392595946,0.31001612992326605,True,True
1234,ZrSb,"[Element Sb, Element Zr]",Zr1 Sb1,crystal_system=<CrystalSystem.cubic: 'Cubic'> symbol='P2_13' number=198 point_group='23' symprec=0.1 version='1.16.2',cubic,7.757679351236232,182.35775754478703,103.70855025932161,58.138572740403305,0.26383344619826943,True,True
1235,MnAl6,"[Element Al, Element Mn]",Mn1 Al6,crystal_system=<CrystalSystem.ortho: 'Orthorhombic'> symbol='Cmcm' number=63 point_group='mmm' symprec=0.1 version='1.16.2',ortho,3.451853780140731,208.61263913913808,103.79814447846809,67.36002737542427,0.23323075628777468,True,True