,Formula,Elements,Composition,Symmetry,Crystal system,Density [g/m$^3$],Volume [$\mathring{A}^3$],Bulk modulus[GPa],Shear modulus [GPa],Poisson,Metal,Experimental report
548,SrCuP,"[Element Cu, Element P, Element Sr]",Sr1 Cu1 P1,crystal_system=<CrystalSystem.hex_: 'Hexagonal'> symbol='P6_3/mmc' number=194 point_group='6/mmm' symprec=0.1 version='1.16.2',hex_,4.872279331606139,124.15141653322405,66.46980461257618,46.39372854848382,0.21688485286578166,True,True
549,LaSi,"[Element La, Element Si]",La1 Si1,crystal_system=<CrystalSystem.ortho: 'Orthorhombic'> symbol='Cmcm' number=63 point_group='mmm' symprec=0.1 version='1.16.2',ortho,5.3885766733457015,205.83916404200258,66.48015090791623,44.170909550845586,0.22802432650253227,True,True
550,MgNiBi,"[Element Bi, Element Mg, Element Ni]",Mg1 Ni1 Bi1,crystal_system=<CrystalSystem.cubic: 'Cubic'> symbol='F-43m' number=216 point_group='-43m' symprec=0.1 version='1.16.2',cubic,8.114618611892219,59.74922879412189,66.4875332580756,33.03599545069195,0.28686325769796817,True,True
551,CdCu2GeS4,"[Element Cd, Element Cu, Element Ge, Element S]",Cd1 Cu2 Ge1 S4,crystal_system=<CrystalSystem.ortho: 'Orthorhombic'> symbol='Pmn2_1' number=31 point_group='mm2' symprec=0.1 version='1.16.2',ortho,4.497222096434745,325.2258264618935,66.55126944608497,27.678675778836173,0.317368759112887,False,True
552,CaAu2,"[Element Au, Element Ca]",Ca1 Au2,crystal_system=<CrystalSystem.ortho: 'Orthorhombic'> symbol='Imma' number=74 point_group='mmm' symprec=0.1 version='1.16.2',ortho,10.700090997442418,134.70772354380662,66.56092850096904,14.231063881935238,0.40020937922303856,True,True
553,Zn,[Element Zn],Zn1,crystal_system=<CrystalSystem.hex_: 'Hexagonal'> symbol='P6_3/mmc' number=194 point_group='6/mmm' symprec=0.1 version='1.16.2',hex_,7.53085732013519,28.845108913918352,66.66661514966937,37.03565726967342,0.2656322142998042,True,True
554,Ca4CN4,"[Element C, Element Ca, Element N]",Ca4 C1 N4,crystal_system=<CrystalSystem.ortho: 'Orthorhombic'> symbol='Pnma' number=62 point_group='mmm' symprec=0.1 version='1.16.2',ortho,2.677032656490874,566.5724916267853,66.69858950987052,32.29870859313342,0.29152661677019515,False,True
555,LiMg2Rh,"[Element Li, Element Mg, Element Rh]",Li1 Mg2 Rh1,crystal_system=<CrystalSystem.cubic: 'Cubic'> symbol='Fm-3m' number=225 point_group='m-3m' symprec=0.1 version='1.16.2',cubic,4.14071585584793,63.54534282643284,66.70699045111473,33.2207212450435,0.2864458712342881,True,False
556,AlBPbO4,"[Element Al, Element B, Element O, Element Pb]",Al1 B1 Pb1 O4,crystal_system=<CrystalSystem.ortho: 'Orthorhombic'> symbol='Pbcn' number=60 point_group='mmm' symprec=0.1 version='1.16.2',ortho,6.313764081542392,650.1227346639857,66.71672091946681,45.704817439844554,0.2211477021759504,False,True
557,MgSnAu,"[Element Au, Element Mg, Element Sn]",Mg1 Sn1 Au1,crystal_system=<CrystalSystem.cubic: 'Cubic'> symbol='F-43m' number=216 point_group='-43m' symprec=0.1 version='1.16.2',cubic,8.460038593802015,66.73169052231812,66.76561728545846,23.169806083011654,0.34447474426388774,True,True
558,ScCdHg2,"[Element Cd, Element Hg, Element Sc]",Sc1 Cd1 Hg2,crystal_system=<CrystalSystem.cubic: 'Cubic'> symbol='Fm-3m' number=225 point_group='m-3m' symprec=0.1 version='1.16.2',cubic,11.040632703601188,84.0068674327213,66.7707403053389,16.046579629757698,0.3887502177682661,True,False
559,BaO2,"[Element Ba, Element O]",Ba1 O2,crystal_system=<CrystalSystem.tet: 'Tetragonal'> symbol='I4/mmm' number=139 point_group='4/mmm' symprec=0.1 version='1.16.2',tet,5.534178952108108,50.806471622351985,66.777622660264,34.75252333917133,0.27825595747969284,False,True
560,CaSnPd,"[Element Ca, Element Pd, Element Sn]",Ca1 Sn1 Pd1,crystal_system=<CrystalSystem.ortho: 'Orthorhombic'> symbol='Pnma' number=62 point_group='mmm' symprec=0.1 version='1.16.2',ortho,6.461350898090152,272.6292081768987,66.78470249102642,25.050690996772182,0.3332953124767476,True,True
561,Li2GaPd,"[Element Ga, Element Li, Element Pd]",Li2 Ga1 Pd1,crystal_system=<CrystalSystem.cubic: 'Cubic'> symbol='F-43m' number=216 point_group='-43m' symprec=0.1 version='1.16.2',cubic,5.754167407306991,54.83746192889142,66.81462244470896,25.380671782831886,0.331413327253465,True,True
562,CaIn2Pt,"[Element Ca, Element In, Element Pt]",Ca1 In2 Pt1,crystal_system=<CrystalSystem.ortho: 'Orthorhombic'> symbol='Cmcm' number=63 point_group='mmm' symprec=0.1 version='1.16.2',ortho,8.476660731664348,182.10360459383512,66.85368120270613,27.957048403748814,0.31648904803806316,True,True
563,CaAlAu,"[Element Al, Element Au, Element Ca]",Ca1 Al1 Au1,crystal_system=<CrystalSystem.ortho: 'Orthorhombic'> symbol='Pnma' number=62 point_group='mmm' symprec=0.1 version='1.16.2',ortho,6.87251347294794,255.176315330859,66.88735924278342,28.64932943023815,0.3125954801906691,True,True
564,Ca(ZnP)2,"[Element Ca, Element P, Element Zn]",Ca1 Zn2 P2,crystal_system=<CrystalSystem.trig: 'Trigonal'> symbol='P-3m1' number=164 point_group='-3m' symprec=0.1 version='1.16.2',trig,4.064308802915232,95.13198596757287,66.9045280220065,45.68570280629789,0.22188006272535232,False,True
565,Zr5Te4,"[Element Te, Element Zr]",Zr5 Te4,crystal_system=<CrystalSystem.tet: 'Tetragonal'> symbol='I4/m' number=87 point_group='4/m' symprec=0.1 version='1.16.2',tet,7.003356047518872,229.1678743391644,66.98571761241006,35.656492029818025,0.2739575075022415,True,True
566,ScCd,"[Element Cd, Element Sc]",Sc1 Cd1,crystal_system=<CrystalSystem.cubic: 'Cubic'> symbol='Pm-3m' number=221 point_group='m-3m' symprec=0.1 version='1.16.2',cubic,5.959655519610005,43.84714927001426,67.04158082899131,30.358582097644877,0.30327795434862553,True,True
567,CuAsS,"[Element As, Element Cu, Element S]",Cu1 As1 S1,crystal_system=<CrystalSystem.ortho: 'Orthorhombic'> symbol='Pnma' number=62 point_group='mmm' symprec=0.1 version='1.16.2',ortho,4.90244234297546,231.04895447439517,67.23740206149395,29.58330064934806,0.3081460743381303,True,True
568,Mg2Zn11,"[Element Mg, Element Zn]",Mg2 Zn11,crystal_system=<CrystalSystem.cubic: 'Cubic'> symbol='Pm-3' number=200 point_group='m-3' symprec=0.1 version='1.16.2',cubic,6.428963909988156,595.1853299061726,67.275621282136,33.38069577631839,0.2871197518277402,True,True
569,NaCd2Pt,"[Element Cd, Element Na, Element Pt]",Na1 Cd2 Pt1,crystal_system=<CrystalSystem.cubic: 'Cubic'> symbol='Fm-3m' number=225 point_group='m-3m' symprec=0.1 version='1.16.2',cubic,9.805469680722139,75.0036205575353,67.27905614618746,12.418319826444534,0.4130594978429353,True,False
570,Bi2WO6,"[Element Bi, Element O, Element W]",Bi2 W1 O6,crystal_system=<CrystalSystem.ortho: 'Orthorhombic'> symbol='Pca2_1' number=29 point_group='mm2' symprec=0.1 version='1.16.2',ortho,9.341150935963606,496.17847698103304,67.35896120234317,48.7984527657559,0.20823086794045562,False,True
571,Sc2CdIn,"[Element Cd, Element In, Element Sc]",Sc2 Cd1 In1,crystal_system=<CrystalSystem.cubic: 'Cubic'> symbol='Fm-3m' number=225 point_group='m-3m' symprec=0.1 version='1.16.2',cubic,5.951599132488766,88.48457635376688,67.37373089148315,30.943684217917557,0.30084718493077894,True,False
572,Sr3IrN3,"[Element Ir, Element N, Element Sr]",Sr3 Ir1 N3,crystal_system=<CrystalSystem.hex_: 'Hexagonal'> symbol='P6_3/m' number=176 point_group='6/m' symprec=0.1 version='1.16.2',hex_,6.057060654102864,272.5576650398682,67.43635249365948,38.267040550344475,0.26140372507811155,True,False
573,MgCuSb,"[Element Cu, Element Mg, Element Sb]",Mg1 Cu1 Sb1,crystal_system=<CrystalSystem.cubic: 'Cubic'> symbol='F-43m' number=216 point_group='-43m' symprec=0.1 version='1.16.2',cubic,5.8890665844279395,59.1039767166945,67.61028836472525,36.74785694416345,0.26992203252747893,True,True
574,YCuPb,"[Element Cu, Element Pb, Element Y]",Y1 Cu1 Pb1,crystal_system=<CrystalSystem.hex_: 'Hexagonal'> symbol='P6_3mc' number=186 point_group='6mm' symprec=0.1 version='1.16.2',hex_,8.888407541791981,134.3808650744111,67.7213488093764,44.43440387315361,0.2308076616447825,True,True
575,LiFeAs,"[Element As, Element Fe, Element Li]",Li1 Fe1 As1,crystal_system=<CrystalSystem.tet: 'Tetragonal'> symbol='P4/nmm' number=129 point_group='4/mmm' symprec=0.1 version='1.16.2',tet,5.155477652058138,88.70908381357775,67.74698214035213,40.300149584667736,0.2517863499490008,True,True
576,Sc6FeTe2,"[Element Fe, Element Sc, Element Te]",Sc6 Fe1 Te2,crystal_system=<CrystalSystem.hex_: 'Hexagonal'> symbol='P-62m' number=189 point_group='-6m2' symprec=0.1 version='1.16.2',hex_,4.840962295064368,199.21837934116033,67.7826186061366,32.28117690000055,0.29450000370766066,True,True
577,Sr2TaN3,"[Element N, Element Sr, Element Ta]",Sr2 Ta1 N3,crystal_system=<CrystalSystem.mono: 'Monoclinic'> symbol='C2/c' number=15 point_group='2/m' symprec=0.1 version='1.16.2',mono,6.170293028413287,428.66029498240005,67.80648154451812,37.688987162243805,0.2655267369859318,False,True
578,KVF3,"[Element F, Element K, Element V]",K1 V1 F3,crystal_system=<CrystalSystem.cubic: 'Cubic'> symbol='Pm-3m' number=221 point_group='m-3m' symprec=0.1 version='1.16.2',cubic,3.467540209722954,70.41227003340603,67.82435927611809,33.71207038435955,0.2867990219556727,False,True
579,Ca3N2,"[Element Ca, Element N]",Ca3 N2,crystal_system=<CrystalSystem.cubic: 'Cubic'> symbol='Ia-3' number=206 point_group='m-3' symprec=0.1 version='1.16.2',cubic,2.6349331595232925,747.4059775130344,67.88798587554348,33.60433693726563,0.2875548205943545,False,True
580,LiTiS2,"[Element Li, Element S, Element Ti]",Li1 Ti1 S2,crystal_system=<CrystalSystem.trig: 'Trigonal'> symbol='P-3m1' number=164 point_group='-3m' symprec=0.1 version='1.16.2',trig,3.1240722492519906,63.21915107775093,67.91834794291134,48.209474365121025,0.2129984330093461,True,True
581,SrCuN,"[Element Cu, Element N, Element Sr]",Sr1 Cu1 N1,crystal_system=<CrystalSystem.ortho: 'Orthorhombic'> symbol='Pnma' number=62 point_group='mmm' symprec=0.1 version='1.16.2',ortho,5.134276473739162,641.0462447560105,68.03053180403575,34.02135034671355,0.28568143215632,False,True
582,Cu3SbS4,"[Element Cu, Element S, Element Sb]",Cu3 Sb1 S4,crystal_system=<CrystalSystem.tet: 'Tetragonal'> symbol='I-42m' number=121 point_group='-42m' symprec=0.1 version='1.16.2',tet,4.73419133116811,154.56279073310634,68.04023226245354,25.728829644312633,0.3320934349284315,True,True
583,Li2Pt,"[Element Li, Element Pt]",Li2 Pt1,crystal_system=<CrystalSystem.hex_: 'Hexagonal'> symbol='P6/mmm' number=191 point_group='6/mmm' symprec=0.1 version='1.16.2',hex_,8.710751847153164,39.83539109824836,68.06793566767685,30.600830434218786,0.3045130362316838,True,True
584,SrGePt,"[Element Ge, Element Pt, Element Sr]",Sr1 Ge1 Pt1,crystal_system=<CrystalSystem.cubic: 'Cubic'> symbol='P2_13' number=198 point_group='23' symprec=0.1 version='1.16.2',cubic,8.093974099032165,291.60587215245323,68.14437826065576,18.86780815921918,0.37325753368501025,True,True
585,Ag2O,"[Element Ag, Element O]",Ag2 O1,crystal_system=<CrystalSystem.cubic: 'Cubic'> symbol='Pn-3m' number=224 point_group='m-3m' symprec=0.1 version='1.16.2',cubic,7.163037725930793,107.44222318884995,68.15449543118544,-0.1819494513301888,0.501336019795103,True,True
586,ZnSO4,"[Element O, Element S, Element Zn]",Zn1 S1 O4,crystal_system=<CrystalSystem.ortho: 'Orthorhombic'> symbol='Pnma' number=62 point_group='mmm' symprec=0.1 version='1.16.2',ortho,3.9343618353866754,272.60319326481704,68.17318454634398,32.028337052120136,0.2969015684823555,False,True
587,ZnP2,"[Element P, Element Zn]",Zn1 P2,crystal_system=<CrystalSystem.tet: 'Tetragonal'> symbol='P4_32_12' number=96 point_group='422' symprec=0.1 version='1.16.2',tet,3.5985714901928274,470.1431866833324,68.205058964626,42.25439136753446,0.24325880869939245,False,True
588,LiSn4Ru,"[Element Li, Element Ru, Element Sn]",Li1 Sn4 Ru1,crystal_system=<CrystalSystem.tet: 'Tetragonal'> symbol='I4/mcm' number=140 point_group='4/mmm' symprec=0.1 version='1.16.2',tet,7.776243744205937,248.92400170146854,68.21946657605889,46.32065710187892,0.2231602248793781,True,True
589,LiCd2Pd,"[Element Cd, Element Li, Element Pd]",Li1 Cd2 Pd1,crystal_system=<CrystalSystem.cubic: 'Cubic'> symbol='Fm-3m' number=225 point_group='m-3m' symprec=0.1 version='1.16.2',cubic,8.192537795580296,68.54604728988141,68.25672546458895,16.269615523827408,0.3895926245947639,True,False
590,BaO,"[Element Ba, Element O]",Ba1 O1,crystal_system=<CrystalSystem.cubic: 'Cubic'> symbol='Fm-3m' number=225 point_group='m-3m' symprec=0.1 version='1.16.2',cubic,5.859229670745691,43.453575205003915,68.35650846399855,37.7462310419442,0.26682177715958855,False,True
591,SrSiPd,"[Element Pd, Element Si, Element Sr]",Sr1 Si1 Pd1,crystal_system=<CrystalSystem.cubic: 'Cubic'> symbol='P2_13' number=198 point_group='23' symprec=0.1 version='1.16.2',cubic,5.2958240463246735,278.5954119408786,68.39111151818955,21.10456061264392,0.36009751020720593,True,True
592,Li2AlPd,"[Element Al, Element Li, Element Pd]",Li2 Al1 Pd1,crystal_system=<CrystalSystem.cubic: 'Cubic'> symbol='F-43m' number=216 point_group='-43m' symprec=0.1 version='1.16.2',cubic,4.415759260612875,55.38573442938203,68.4348081680265,29.31350949509998,0.3125877954291263,True,True
593,LiAlAg2,"[Element Ag, Element Al, Element Li]",Li1 Al1 Ag2,crystal_system=<CrystalSystem.cubic: 'Cubic'> symbol='Fm-3m' number=225 point_group='m-3m' symprec=0.1 version='1.16.2',cubic,6.698327906016393,61.89132970018205,68.57645845662965,26.835144769912056,0.32691806501408277,True,True
594,RbTaO3,"[Element O, Element Rb, Element Ta]",Rb1 Ta1 O3,crystal_system=<CrystalSystem.mono: 'Monoclinic'> symbol='C2/m' number=12 point_group='2/m' symprec=0.1 version='1.16.2',mono,6.252906290016969,333.98647387684906,68.76026513221149,27.234779489071187,0.32505591220798913,False,True
595,Ba3V2O8,"[Element Ba, Element O, Element V]",Ba3 V2 O8,crystal_system=<CrystalSystem.trig: 'Trigonal'> symbol='R-3m' number=166 point_group='-3m' symprec=0.1 version='1.16.2',trig,5.086795334033374,209.5292235812273,68.78430388068824,29.090217827630074,0.3146672326360593,False,True
596,KZnF3,"[Element F, Element K, Element Zn]",K1 Zn1 F3,crystal_system=<CrystalSystem.cubic: 'Cubic'> symbol='Pm-3m' number=221 point_group='m-3m' symprec=0.1 version='1.16.2',cubic,4.044777029368843,66.30309275332023,68.78847994046161,33.75348976345005,0.2891451759646162,False,True
597,Zn(CrSe2)2,"[Element Cr, Element Se, Element Zn]",Zn1 Cr2 Se4,crystal_system=<CrystalSystem.cubic: 'Cubic'> symbol='Fd-3m' number=227 point_group='m-3m' symprec=0.1 version='1.16.2',cubic,5.5025351550238755,292.8693580769563,68.86839936641755,31.12106990199979,0.3036329546352288,False,True
598,BaAsPt,"[Element As, Element Ba, Element Pt]",Ba1 As1 Pt1,crystal_system=<CrystalSystem.cubic: 'Cubic'> symbol='P2_13' number=198 point_group='23' symprec=0.1 version='1.16.2',cubic,8.679389424572333,311.723169597534,68.88562192590018,22.69676822467764,0.3515604407791357,True,True
599,Li2WO4,"[Element Li, Element O, Element W]",Li2 W1 O4,crystal_system=<CrystalSystem.mono: 'Monoclinic'> symbol='C2/c' number=15 point_group='2/m' symprec=0.1 version='1.16.2',mono,6.030274467853497,144.13792360917915,68.88642139448278,26.16999639016843,0.3314000805202022,False,True
600,YbNiSb,"[Element Ni, Element Sb, Element Yb]",Yb1 Ni1 Sb1,crystal_system=<CrystalSystem.cubic: 'Cubic'> symbol='F-43m' number=216 point_group='-43m' symprec=0.1 version='1.16.2',cubic,9.421944742487147,62.3002592913011,68.98822891705103,33.02326578932179,0.29359422771179133,True,True
601,Er2S3,"[Element Er, Element S]",Er2 S3,crystal_system=<CrystalSystem.mono: 'Monoclinic'> symbol='P2_1/m' number=11 point_group='2/m' symprec=0.1 version='1.16.2',mono,6.204950661786847,691.5920547737513,69.01878465578369,32.63713266588341,0.29575707422649167,False,True
602,LiSn4Ir,"[Element Ir, Element Li, Element Sn]",Li1 Sn4 Ir1,crystal_system=<CrystalSystem.tet: 'Tetragonal'> symbol='I4/mcm' number=140 point_group='4/mmm' symprec=0.1 version='1.16.2',tet,8.944628424683312,250.25075535206312,69.02718323055377,47.72276715349486,0.21906225288269446,True,True
603,La2S3,"[Element La, Element S]",La2 S3,crystal_system=<CrystalSystem.ortho: 'Orthorhombic'> symbol='Pnma' number=62 point_group='mmm' symprec=0.1 version='1.16.2',ortho,4.927142517339004,504.1879526114183,69.16193608267577,32.1967382918472,0.29850386215027863,False,True
604,PbWO4,"[Element O, Element Pb, Element W]",Pb1 W1 O4,crystal_system=<CrystalSystem.mono: 'Monoclinic'> symbol='P2_1/c' number=14 point_group='2/m' symprec=0.1 version='1.16.2',mono,8.319423278519203,363.2981211680321,69.20985084182746,23.435025597828194,0.34786703923964196,False,True
605,CaCN2,"[Element C, Element Ca, Element N]",Ca1 C1 N2,crystal_system=<CrystalSystem.trig: 'Trigonal'> symbol='R-3m' number=166 point_group='-3m' symprec=0.1 version='1.16.2',trig,2.280192324532608,58.33396811997632,69.24743361064367,22.35928957435931,0.35424292677717145,False,True
606,MgCdAg2,"[Element Ag, Element Cd, Element Mg]",Mg1 Cd1 Ag2,crystal_system=<CrystalSystem.cubic: 'Cubic'> symbol='Fm-3m' number=225 point_group='m-3m' symprec=0.1 version='1.16.2',cubic,7.974781472442552,73.38896762743185,69.32204373111256,23.069014019052396,0.35022399515550906,True,True
607,Ba(CoAs)2,"[Element As, Element Ba, Element Co]",Ba1 Co2 As2,crystal_system=<CrystalSystem.tet: 'Tetragonal'> symbol='I4/mmm' number=139 point_group='4/mmm' symprec=0.1 version='1.16.2',tet,6.778278052143872,99.22565523624687,69.43026096372952,35.54190609093256,0.2813547504276264,True,True
608,LiB,"[Element B, Element Li]",Li1 B1,crystal_system=<CrystalSystem.hex_: 'Hexagonal'> symbol='P6_3/mmc' number=194 point_group='6/mmm' symprec=0.1 version='1.16.2',hex_,1.3678437666054608,43.101252101967226,69.4637994468686,35.49038083245953,0.2817156680208084,True,True
609,NbPbS2,"[Element Nb, Element Pb, Element S]",Nb1 Pb1 S2,crystal_system=<CrystalSystem.hex_: 'Hexagonal'> symbol='P6_3/mmc' number=194 point_group='6/mmm' symprec=0.1 version='1.16.2',hex_,6.814752296222628,177.50571471312767,69.46906763156571,26.236805906708888,0.33227694983095807,True,True
610,NiSeO4,"[Element Ni, Element O, Element Se]",Ni1 Se1 O4,crystal_system=<CrystalSystem.ortho: 'Orthorhombic'> symbol='Cmcm' number=63 point_group='mmm' symprec=0.1 version='1.16.2',ortho,4.825443526591887,138.78490608114268,69.47407530550316,41.83861986907079,0.24922993004916066,False,True
611,SrSnPt,"[Element Pt, Element Sn, Element Sr]",Sr1 Sn1 Pt1,crystal_system=<CrystalSystem.ortho: 'Orthorhombic'> symbol='Pnma' number=62 point_group='mmm' symprec=0.1 version='1.16.2',ortho,9.092335431713783,293.24198777586633,69.5655089573803,28.15286664281124,0.3217039978970816,True,True
612,LiCaN,"[Element Ca, Element Li, Element N]",Li1 Ca1 N1,crystal_system=<CrystalSystem.ortho: 'Orthorhombic'> symbol='Pnma' number=62 point_group='mmm' symprec=0.1 version='1.16.2',ortho,2.3721160071248546,170.87791425417905,69.57367072546336,40.4117129955728,0.2566856403488616,False,True
613,Na(CoO2)2,"[Element Co, Element Na, Element O]",Na1 Co2 O4,crystal_system=<CrystalSystem.ortho: 'Orthorhombic'> symbol='Pmmn' number=59 point_group='mmm' symprec=0.1 version='1.16.2',ortho,4.577988990404091,297.22017325715433,69.58244619896811,28.693438562080924,0.31873308216851637,True,True
614,Li5OsN4,"[Element Li, Element N, Element Os]",Li5 Os1 N4,crystal_system=<CrystalSystem.ortho: 'Orthorhombic'> symbol='Pmmn' number=59 point_group='mmm' symprec=0.1 version='1.16.2',ortho,4.209125153958838,221.68409256419955,69.59329270562367,38.553532113910435,0.2661848509794716,False,False
615,NaMgF3,"[Element F, Element Mg, Element Na]",Na1 Mg1 F3,crystal_system=<CrystalSystem.ortho: 'Orthorhombic'> symbol='Pnma' number=62 point_group='mmm' symprec=0.1 version='1.16.2',ortho,3.1455501650090683,220.21913509636192,69.62190018079113,41.644455976851205,0.2506421103509909,False,True