,Formula,Elements,Composition,Symmetry,Crystal system,Density [g/m$^3$],Volume [$\mathring{A}^3$],Bulk modulus[GPa],Shear modulus [GPa],Poisson,Metal,Experimental report
1924,Zn3Ir,"[Element Ir, Element Zn]",Zn3 Ir1,crystal_system=<CrystalSystem.tet: 'Tetragonal'> symbol='I4/mmm' number=139 point_group='4/mmm' symprec=0.1 version='1.16.2',tet,11.823891432667555,54.552804451862926,145.34753416909996,52.58986707818005,0.33856005172110204,True,False
1925,Y(CoB)2,"[Element B, Element Co, Element Y]",Y1 Co2 B2,crystal_system=<CrystalSystem.tet: 'Tetragonal'> symbol='I4/mmm' number=139 point_group='4/mmm' symprec=0.1 version='1.16.2',tet,6.451737345247051,58.78378765462495,145.60525618098006,105.50885494260854,0.20817610788765886,True,True
1926,SnPd3,"[Element Pd, Element Sn]",Sn1 Pd3,crystal_system=<CrystalSystem.cubic: 'Cubic'> symbol='Pm-3m' number=221 point_group='m-3m' symprec=0.1 version='1.16.2',cubic,11.303794193467914,64.3382463048615,145.7479028173276,51.50400613820548,0.3419306998251913,True,True
1927,ZrVGe,"[Element Ge, Element V, Element Zr]",Zr1 V1 Ge1,crystal_system=<CrystalSystem.tet: 'Tetragonal'> symbol='I4/mmm' number=139 point_group='4/mmm' symprec=0.1 version='1.16.2',tet,7.039905128825735,101.33458276590244,145.78271892904684,71.72201376430803,0.2886676005197415,True,True
1928,TiSi,"[Element Si, Element Ti]",Ti1 Si1,crystal_system=<CrystalSystem.ortho: 'Orthorhombic'> symbol='Pnma' number=62 point_group='mmm' symprec=0.1 version='1.16.2',ortho,4.271720287103741,118.09958047739894,145.85965499768037,98.90324755516264,0.22346730634724624,True,True
1929,Be5Pd,"[Element Be, Element Pd]",Be5 Pd1,crystal_system=<CrystalSystem.cubic: 'Cubic'> symbol='F-43m' number=216 point_group='-43m' symprec=0.1 version='1.16.2',cubic,4.714890142485599,53.35012297158457,145.9033062264445,131.55350208037936,0.15335862814227352,True,True
1930,ZnCuPd2,"[Element Cu, Element Pd, Element Zn]",Zn1 Cu1 Pd2,crystal_system=<CrystalSystem.cubic: 'Cubic'> symbol='Fm-3m' number=225 point_group='m-3m' symprec=0.1 version='1.16.2',cubic,10.467508887322737,54.221492083558395,145.99732649421324,51.54361648937636,0.34206373270865426,True,False
1931,ZnNi,"[Element Ni, Element Zn]",Zn1 Ni1,crystal_system=<CrystalSystem.tet: 'Tetragonal'> symbol='P4/mmm' number=123 point_group='4/mmm' symprec=0.1 version='1.16.2',tet,8.906568762336324,46.27525794900231,146.0457645667749,62.50738854110586,0.31271930744998205,True,True
1932,Ti3ZnN,"[Element N, Element Ti, Element Zn]",Ti3 Zn1 N1,crystal_system=<CrystalSystem.ortho: 'Orthorhombic'> symbol='Cmcm' number=63 point_group='mmm' symprec=0.1 version='1.16.2',ortho,5.465796292856454,135.5074075256752,146.09176068307374,92.09745665188079,0.23953000428312904,True,False
1933,TiSnPd2,"[Element Pd, Element Sn, Element Ti]",Ti1 Sn1 Pd2,crystal_system=<CrystalSystem.cubic: 'Cubic'> symbol='Fm-3m' number=225 point_group='m-3m' symprec=0.1 version='1.16.2',cubic,9.499966697704913,66.3198904880774,146.28697664399056,-17.845029572731182,0.5635784642248828,True,False
1934,ZrMnSi,"[Element Mn, Element Si, Element Zr]",Zr1 Mn1 Si1,crystal_system=<CrystalSystem.ortho: 'Orthorhombic'> symbol='Pnma' number=62 point_group='mmm' symprec=0.1 version='1.16.2',ortho,5.9047276714102646,196.00894187388346,146.2922935783026,82.52179766523574,0.26259491704569016,True,True
1935,Cu3Pd,"[Element Cu, Element Pd]",Cu3 Pd1,crystal_system=<CrystalSystem.cubic: 'Cubic'> symbol='Pm-3m' number=221 point_group='m-3m' symprec=0.1 version='1.16.2',cubic,9.963419821263283,49.508745279742634,146.37735002832005,46.79974947295817,0.3555360561434709,True,True
1936,CeN,"[Element Ce, Element N]",Ce1 N1,crystal_system=<CrystalSystem.cubic: 'Cubic'> symbol='Fm-3m' number=225 point_group='m-3m' symprec=0.1 version='1.16.2',cubic,7.769274573230603,32.94088295986853,146.4132855815099,76.22221329128297,0.2781925643355661,True,True
1937,Sc2NiIr,"[Element Ir, Element Ni, Element Sc]",Sc2 Ni1 Ir1,crystal_system=<CrystalSystem.cubic: 'Cubic'> symbol='Fm-3m' number=225 point_group='m-3m' symprec=0.1 version='1.16.2',cubic,8.710825815277069,64.97071916246263,146.54463388393182,47.907066329831736,0.35260602859233847,True,False
1938,ZrCuSi,"[Element Cu, Element Si, Element Zr]",Zr1 Cu1 Si1,crystal_system=<CrystalSystem.ortho: 'Orthorhombic'> symbol='Pnma' number=62 point_group='mmm' symprec=0.1 version='1.16.2',ortho,6.560026255143883,185.14480856206055,146.55094171584446,84.092472567629,0.2591602074486906,True,True
1939,TiFe2,"[Element Fe, Element Ti]",Ti1 Fe2,crystal_system=<CrystalSystem.hex_: 'Hexagonal'> symbol='P6_3/mmc' number=194 point_group='6/mmm' symprec=0.1 version='1.16.2',hex_,6.649483064672066,159.38119055127652,146.63249589742315,79.0308526839115,0.27155558908204785,True,True
1940,Mg2TiO4,"[Element Mg, Element O, Element Ti]",Mg2 Ti1 O4,crystal_system=<CrystalSystem.tet: 'Tetragonal'> symbol='P4_122' number=91 point_group='422' symprec=0.1 version='1.16.2',tet,3.5490834210128113,300.33032294401676,146.712274130583,71.73026132190458,0.289798181195321,False,False
1941,U,[Element U],U1,crystal_system=<CrystalSystem.ortho: 'Orthorhombic'> symbol='Cmcm' number=63 point_group='mmm' symprec=0.1 version='1.16.2',ortho,20.113723164295358,39.302152148225844,146.75989952335323,110.08480679695192,0.19996755134978683,True,True
1942,TiGaNi,"[Element Ga, Element Ni, Element Ti]",Ti1 Ga1 Ni1,crystal_system=<CrystalSystem.hex_: 'Hexagonal'> symbol='P-62m' number=189 point_group='-6m2' symprec=0.1 version='1.16.2',hex_,7.166268971650974,122.54304449821784,146.9175132078467,69.12307435103384,0.29664724359278494,True,True
1943,LiHf2Os,"[Element Hf, Element Li, Element Os]",Li1 Hf2 Os1,crystal_system=<CrystalSystem.cubic: 'Cubic'> symbol='Fm-3m' number=225 point_group='m-3m' symprec=0.1 version='1.16.2',cubic,13.377225664733954,68.78775968632486,146.99458576115933,53.86859191168797,0.33671313675897313,True,False
1944,MgGeN2,"[Element Ge, Element Mg, Element N]",Mg1 Ge1 N2,crystal_system=<CrystalSystem.ortho: 'Orthorhombic'> symbol='Pna2_1' number=33 point_group='mm2' symprec=0.1 version='1.16.2',ortho,4.412035345023502,188.12025622947417,147.03896491370315,84.21752483092511,0.25953167631905827,False,True
1945,ZrFe2,"[Element Fe, Element Zr]",Zr1 Fe2,crystal_system=<CrystalSystem.cubic: 'Cubic'> symbol='Fd-3m' number=227 point_group='m-3m' symprec=0.1 version='1.16.2',cubic,7.547299672766028,89.2893190331169,147.15516774931496,72.19536779352836,0.2891740294122016,True,True
1946,Pd4S,"[Element Pd, Element S]",Pd4 S1,crystal_system=<CrystalSystem.tet: 'Tetragonal'> symbol='P-42_1c' number=114 point_group='-42m' symprec=0.1 version='1.16.2',tet,10.165853472077288,149.54050973262704,147.25132229393782,36.91417966404995,0.38432221802173017,True,True
1947,Sc2RuPt,"[Element Pt, Element Ru, Element Sc]",Sc2 Ru1 Pt1,crystal_system=<CrystalSystem.cubic: 'Cubic'> symbol='Fm-3m' number=225 point_group='m-3m' symprec=0.1 version='1.16.2',cubic,9.48942571081367,67.55702637521894,147.27142550810413,60.56423010972934,0.3191675321198183,True,False
1948,Al13Os4,"[Element Al, Element Os]",Al13 Os4,crystal_system=<CrystalSystem.mono: 'Monoclinic'> symbol='C2/m' number=12 point_group='2/m' symprec=0.1 version='1.16.2',mono,7.129181968788288,258.9340657355407,147.32812163584845,76.840460649042,0.2778427606082398,True,True
1949,Er2O3,"[Element Er, Element O]",Er2 O3,crystal_system=<CrystalSystem.cubic: 'Cubic'> symbol='Ia-3' number=206 point_group='m-3' symprec=0.1 version='1.16.2',cubic,8.894209986204963,571.3227771258436,147.3316272203997,67.3915874052887,0.3015507139536158,False,True
1950,TiZnPd2,"[Element Pd, Element Ti, Element Zn]",Ti1 Zn1 Pd2,crystal_system=<CrystalSystem.cubic: 'Cubic'> symbol='Fm-3m' number=225 point_group='m-3m' symprec=0.1 version='1.16.2',cubic,9.173783820602836,59.029989024500495,147.41282031839455,0.014711303169757883,0.4999501033432005,True,False
1951,Ti2S,"[Element S, Element Ti]",Ti2 S1,crystal_system=<CrystalSystem.ortho: 'Orthorhombic'> symbol='Pnnm' number=58 point_group='mmm' symprec=0.1 version='1.16.2',ortho,4.828433316784582,527.413887485313,147.44395039312934,84.59106634338805,0.259193241942077,True,True
1952,ZrAlPd2,"[Element Al, Element Pd, Element Zr]",Zr1 Al1 Pd2,crystal_system=<CrystalSystem.cubic: 'Cubic'> symbol='Fm-3m' number=225 point_group='m-3m' symprec=0.1 version='1.16.2',cubic,8.291360572515433,66.2996193279972,147.49286869274192,14.732681625304881,0.4516656236792496,True,True
1953,ScAlCo2,"[Element Al, Element Co, Element Sc]",Sc1 Al1 Co2,crystal_system=<CrystalSystem.cubic: 'Cubic'> symbol='Fm-3m' number=225 point_group='m-3m' symprec=0.1 version='1.16.2',cubic,6.062234848808592,51.990181866504344,147.51092037766256,91.2558309408962,0.2435618736632767,True,False
1954,Ni(AsO3)2,"[Element As, Element Ni, Element O]",Ni1 As2 O6,crystal_system=<CrystalSystem.trig: 'Trigonal'> symbol='P-31m' number=162 point_group='-3m' symprec=0.1 version='1.16.2',trig,5.791204860649045,87.32016147538305,147.62846314373812,80.60058450389057,0.2690465785606252,True,True
1955,HfBeSi,"[Element Be, Element Hf, Element Si]",Hf1 Be1 Si1,crystal_system=<CrystalSystem.hex_: 'Hexagonal'> symbol='P6_3/mmc' number=194 point_group='6/mmm' symprec=0.1 version='1.16.2',hex_,8.529838940856248,83.93869350194353,147.63645671216182,117.76343684147497,0.18494074785910528,True,True
1956,BaPt5,"[Element Ba, Element Pt]",Ba1 Pt5,crystal_system=<CrystalSystem.hex_: 'Hexagonal'> symbol='P6/mmm' number=191 point_group='6/mmm' symprec=0.1 version='1.16.2',hex_,15.797411037494062,116.96599274124222,147.64695716242306,63.22803194879852,0.31262766780145174,True,True
1957,Sr(Si3N4)2,"[Element N, Element Si, Element Sr]",Sr1 Si6 N8,crystal_system=<CrystalSystem.ortho: 'Orthorhombic'> symbol='Imm2' number=44 point_group='mm2' symprec=0.1 version='1.16.2',ortho,3.473047288554178,176.0379811451249,147.6806485765826,98.93502723248679,0.22618294087732213,False,True
1958,LiV2N3,"[Element Li, Element N, Element V]",Li1 V2 N3,crystal_system=<CrystalSystem.ortho: 'Orthorhombic'> symbol='Cmcm' number=63 point_group='mmm' symprec=0.1 version='1.16.2',ortho,4.151250788211868,120.67809621495367,147.69608146974295,70.24461975123276,0.2947395598776377,False,False
1959,ScVO4,"[Element O, Element Sc, Element V]",Sc1 V1 O4,crystal_system=<CrystalSystem.tet: 'Tetragonal'> symbol='I4_1/amd' number=141 point_group='4/mmm' symprec=0.1 version='1.16.2',tet,3.7430531870230035,141.86916440353752,147.75267197280058,29.587844650571814,0.4061390387927827,False,True
1960,ScSiRh,"[Element Rh, Element Sc, Element Si]",Sc1 Si1 Rh1,crystal_system=<CrystalSystem.ortho: 'Orthorhombic'> symbol='Pnma' number=62 point_group='mmm' symprec=0.1 version='1.16.2',ortho,6.103789166634526,191.4658013554722,147.88002435183176,73.91340382165566,0.2857803865960693,True,True
1961,YNi5,"[Element Ni, Element Y]",Y1 Ni5,crystal_system=<CrystalSystem.hex_: 'Hexagonal'> symbol='P6/mmm' number=191 point_group='6/mmm' symprec=0.1 version='1.16.2',hex_,8.002759446554021,79.34076485400149,147.89596770160827,72.2067232585469,0.29005386109307546,True,True
1962,AlPd,"[Element Al, Element Pd]",Al1 Pd1,crystal_system=<CrystalSystem.cubic: 'Cubic'> symbol='P2_13' number=198 point_group='23' symprec=0.1 version='1.16.2',cubic,7.691468287349427,115.2021736885745,147.90725971616175,65.1495238931516,0.30795874073541263,True,True
1963,BeAu,"[Element Au, Element Be]",Be1 Au1,crystal_system=<CrystalSystem.cubic: 'Cubic'> symbol='P2_13' number=198 point_group='23' symprec=0.1 version='1.16.2',cubic,13.287683257559674,102.96324988944377,147.9291988511289,40.969269070129194,0.37322736826811304,True,True
1964,YMnO3,"[Element Mn, Element O, Element Y]",Y1 Mn1 O3,crystal_system=<CrystalSystem.hex_: 'Hexagonal'> symbol='P6_3cm' number=185 point_group='6mm' symprec=0.1 version='1.16.2',hex_,5.120548727866363,373.2740106140465,147.9499753277046,64.28722019586615,0.31022676452818576,True,True
1965,Hf3(Cu2Si)2,"[Element Cu, Element Hf, Element Si]",Hf3 Cu4 Si2,crystal_system=<CrystalSystem.hex_: 'Hexagonal'> symbol='P-62m' number=189 point_group='-6m2' symprec=0.1 version='1.16.2',hex_,10.480709486425917,134.01053219021242,148.1048744827577,80.17541093506983,0.2707046683089006,True,True
1966,CaZrO3,"[Element Ca, Element O, Element Zr]",Ca1 Zr1 O3,crystal_system=<CrystalSystem.ortho: 'Orthorhombic'> symbol='Pnma' number=62 point_group='mmm' symprec=0.1 version='1.16.2',ortho,4.603084505750543,258.7265007863652,148.2552951343548,85.1528846053868,0.25896432786096035,False,True
1967,TiCuSi,"[Element Cu, Element Si, Element Ti]",Ti1 Cu1 Si1,crystal_system=<CrystalSystem.ortho: 'Orthorhombic'> symbol='Pnma' number=62 point_group='mmm' symprec=0.1 version='1.16.2',ortho,5.678933088294623,163.15931558310515,148.39293861880196,76.79321678269332,0.27931801328197925,True,True
1968,ScInRh2,"[Element In, Element Rh, Element Sc]",Sc1 In1 Rh2,crystal_system=<CrystalSystem.cubic: 'Cubic'> symbol='Fm-3m' number=225 point_group='m-3m' symprec=0.1 version='1.16.2',cubic,9.245105014898455,65.66372448525301,148.3986238463382,72.89389029207393,0.2889538773133313,True,False
1969,LiAlRh2,"[Element Al, Element Li, Element Rh]",Li1 Al1 Rh2,crystal_system=<CrystalSystem.cubic: 'Cubic'> symbol='Fm-3m' number=225 point_group='m-3m' symprec=0.1 version='1.16.2',cubic,7.854846497636059,50.68041833018183,148.44375202544555,64.03286936947698,0.31143292341181333,True,False
1970,ScZnRh2,"[Element Rh, Element Sc, Element Zn]",Sc1 Zn1 Rh2,crystal_system=<CrystalSystem.cubic: 'Cubic'> symbol='Fm-3m' number=225 point_group='m-3m' symprec=0.1 version='1.16.2',cubic,8.824313773865455,59.49725579215207,148.45474613717226,60.84436795247363,0.31970564944704827,True,False
1971,HfP,"[Element Hf, Element P]",Hf1 P1,crystal_system=<CrystalSystem.hex_: 'Hexagonal'> symbol='P6_3/mmc' number=194 point_group='6/mmm' symprec=0.1 version='1.16.2',hex_,9.726313498670915,143.04402583179493,148.4763086935302,85.61073740721906,0.2581798216965455,True,True
1972,MgB2,"[Element B, Element Mg]",Mg1 B2,crystal_system=<CrystalSystem.hex_: 'Hexagonal'> symbol='P6/mmm' number=191 point_group='6/mmm' symprec=0.1 version='1.16.2',hex_,2.6663060021405673,28.60271013548789,148.49859627809508,117.65727437433094,0.18661111322745583,True,True
1973,ZrAlNi2,"[Element Al, Element Ni, Element Zr]",Zr1 Al1 Ni2,crystal_system=<CrystalSystem.cubic: 'Cubic'> symbol='Fm-3m' number=225 point_group='m-3m' symprec=0.1 version='1.16.2',cubic,6.9626669983422005,56.18684365202323,148.56194832066888,39.393774012498604,0.37818358325655904,True,True
1974,Mg4Ta2O9,"[Element Mg, Element O, Element Ta]",Mg4 Ta2 O9,crystal_system=<CrystalSystem.trig: 'Trigonal'> symbol='P-3c1' number=165 point_group='-3m' symprec=0.1 version='1.16.2',trig,6.195599695626739,323.29019415444355,148.72628965593537,76.22453079110926,0.28113313152359015,False,True
1975,ScGaCo2,"[Element Co, Element Ga, Element Sc]",Sc1 Ga1 Co2,crystal_system=<CrystalSystem.cubic: 'Cubic'> symbol='Fm-3m' number=225 point_group='m-3m' symprec=0.1 version='1.16.2',cubic,7.476628996810224,51.64768224958595,148.74682097656012,84.09191713352419,0.26215316951747636,True,False
1976,Sc(SiNi)2,"[Element Ni, Element Sc, Element Si]",Sc1 Si2 Ni2,crystal_system=<CrystalSystem.tet: 'Tetragonal'> symbol='I4/mmm' number=139 point_group='4/mmm' symprec=0.1 version='1.16.2',tet,5.2806036969217525,68.71383958907944,148.79291389715047,62.20657945092604,0.31653054994430885,True,True
1977,MgSnRh2,"[Element Mg, Element Rh, Element Sn]",Mg1 Sn1 Rh2,crystal_system=<CrystalSystem.cubic: 'Cubic'> symbol='Fm-3m' number=225 point_group='m-3m' symprec=0.1 version='1.16.2',cubic,9.309984132617434,62.21699115645676,148.80835838000348,54.1366119312506,0.33777240649000095,True,False
1978,Hf2P,"[Element Hf, Element P]",Hf2 P1,crystal_system=<CrystalSystem.ortho: 'Orthorhombic'> symbol='Pnnm' number=58 point_group='mmm' symprec=0.1 version='1.16.2',ortho,11.75828913515104,657.4552169256518,148.82637018383315,76.13664796673713,0.2814743048049124,True,True
1979,LiSiNi2,"[Element Li, Element Ni, Element Si]",Li1 Si1 Ni2,crystal_system=<CrystalSystem.cubic: 'Cubic'> symbol='Fm-3m' number=225 point_group='m-3m' symprec=0.1 version='1.16.2',cubic,6.137118502123481,41.23893629100622,148.84968034779553,43.28906632984021,0.3674386526541006,True,True
1980,Ti6Si2B,"[Element B, Element Si, Element Ti]",Ti6 Si2 B1,crystal_system=<CrystalSystem.hex_: 'Hexagonal'> symbol='P-62m' number=189 point_group='-6m2' symprec=0.1 version='1.16.2',hex_,4.47404549159012,131.45516063039065,148.86533641590378,103.57499955038514,0.21761053046945789,True,True
1981,BaZrO3,"[Element Ba, Element O, Element Zr]",Ba1 Zr1 O3,crystal_system=<CrystalSystem.cubic: 'Cubic'> symbol='Pm-3m' number=221 point_group='m-3m' symprec=0.1 version='1.16.2',cubic,6.143794292287296,74.74546324141521,148.8673335545741,91.77313766738058,0.24430523124117665,False,True
1982,CoP3,"[Element Co, Element P]",Co1 P3,crystal_system=<CrystalSystem.cubic: 'Cubic'> symbol='Im-3' number=204 point_group='m-3' symprec=0.1 version='1.16.2',cubic,4.44788556440261,226.76869221354147,148.90319263904462,114.52804651154588,0.19390493030078457,True,True
1983,SiPd,"[Element Pd, Element Si]",Si1 Pd1,crystal_system=<CrystalSystem.ortho: 'Orthorhombic'> symbol='Pnma' number=62 point_group='mmm' symprec=0.1 version='1.16.2',ortho,7.5528834679469705,118.28681767456312,148.94735003946704,58.19394954785275,0.32715900573530576,True,True
1984,MgZrRh2,"[Element Mg, Element Rh, Element Zr]",Mg1 Zr1 Rh2,crystal_system=<CrystalSystem.cubic: 'Cubic'> symbol='Fm-3m' number=225 point_group='m-3m' symprec=0.1 version='1.16.2',cubic,8.259783049192263,64.6018933528073,149.0738929341714,66.84774613184643,0.3049453744295862,True,False
1985,ScSiPt,"[Element Pt, Element Sc, Element Si]",Sc1 Si1 Pt1,crystal_system=<CrystalSystem.ortho: 'Orthorhombic'> symbol='Pnma' number=62 point_group='mmm' symprec=0.1 version='1.16.2',ortho,8.939717797516035,199.21555980119706,149.0799835305931,59.78345236997043,0.3231340446395118,True,True
1986,CaB6,"[Element B, Element Ca]",Ca1 B6,crystal_system=<CrystalSystem.cubic: 'Cubic'> symbol='Pm-3m' number=221 point_group='m-3m' symprec=0.1 version='1.16.2',cubic,2.4586468087143736,70.87785491906128,149.17995569738025,86.18740517721427,0.2577768375670011,True,True
1987,HfH2,"[Element H, Element Hf]",Hf1 H2,crystal_system=<CrystalSystem.tet: 'Tetragonal'> symbol='I4/mmm' number=139 point_group='4/mmm' symprec=0.1 version='1.16.2',tet,11.663993812664256,25.697635844556963,149.24976471219634,33.67438348159199,0.39507874753420646,True,True
1988,Ti2ZnN,"[Element N, Element Ti, Element Zn]",Ti2 Zn1 N1,crystal_system=<CrystalSystem.ortho: 'Orthorhombic'> symbol='Cmcm' number=63 point_group='mmm' symprec=0.1 version='1.16.2',ortho,5.755004196805136,101.07478966383033,149.32649797582064,102.57653518037101,0.22052834836829976,True,False
1989,As2Ru,"[Element As, Element Ru]",As2 Ru1,crystal_system=<CrystalSystem.ortho: 'Orthorhombic'> symbol='Pnnm' number=58 point_group='mmm' symprec=0.1 version='1.16.2',ortho,8.23119467448224,101.2371077110571,149.33183858204686,104.84256070689,0.21553362954062694,False,True
1990,Y2B3C2,"[Element B, Element C, Element Y]",Y2 B3 C2,crystal_system=<CrystalSystem.ortho: 'Orthorhombic'> symbol='Cmmm' number=65 point_group='mmm' symprec=0.1 version='1.16.2',ortho,4.592846607984729,84.69867257350295,149.41168853329856,65.17523356360716,0.3095814390465183,True,True
1991,ScPPt,"[Element P, Element Pt, Element Sc]",Sc1 P1 Pt1,crystal_system=<CrystalSystem.ortho: 'Orthorhombic'> symbol='Pnma' number=62 point_group='mmm' symprec=0.1 version='1.16.2',ortho,9.471034052090387,190.06532582805747,149.41759008149418,67.81261925946274,0.3028952707195326,True,True
1992,GaPd2,"[Element Ga, Element Pd]",Ga1 Pd2,crystal_system=<CrystalSystem.ortho: 'Orthorhombic'> symbol='Pnma' number=62 point_group='mmm' symprec=0.1 version='1.16.2',ortho,10.69130689277633,175.54707015013076,149.4953883943224,41.54543750646923,0.3728282912414554,True,True