,Formula,Elements,Composition,Symmetry,Crystal system,Density [g/m$^3$],Volume [$\mathring{A}^3$],Bulk modulus[GPa],Shear modulus [GPa],Poisson,Metal,Experimental report
2748,ScRh3C,"[Element C, Element Rh, Element Sc]",Sc1 Rh3 C1,crystal_system=<CrystalSystem.cubic: 'Cubic'> symbol='Pm-3m' number=221 point_group='m-3m' symprec=0.1 version='1.16.2',cubic,8.975446555191418,67.65469436399678,214.96776736378143,90.47157785510541,0.31545825063736144,True,True
2749,ZrW2,"[Element W, Element Zr]",Zr1 W2,crystal_system=<CrystalSystem.cubic: 'Cubic'> symbol='Fd-3m' number=227 point_group='m-3m' symprec=0.1 version='1.16.2',cubic,13.678258785590051,111.42178719732917,215.19171380671767,86.81600770467136,0.3221933570434063,True,True
2750,Ta2Ni,"[Element Ni, Element Ta]",Ta2 Ni1,crystal_system=<CrystalSystem.tet: 'Tetragonal'> symbol='I4/mcm' number=140 point_group='4/mmm' symprec=0.1 version='1.16.2',tet,15.036324253874438,92.89567308825741,215.28171347045762,81.47945618839341,0.3319606062355607,True,True
2751,Mn3AlC,"[Element Al, Element C, Element Mn]",Mn3 Al1 C1,crystal_system=<CrystalSystem.cubic: 'Cubic'> symbol='Pm-3m' number=221 point_group='m-3m' symprec=0.1 version='1.16.2',cubic,5.446724123725233,62.134310036141514,215.33420376645438,128.60404763285595,0.25096254437677906,True,True
2752,Hf2ReIr,"[Element Hf, Element Ir, Element Re]",Hf2 Re1 Ir1,crystal_system=<CrystalSystem.cubic: 'Cubic'> symbol='Fm-3m' number=225 point_group='m-3m' symprec=0.1 version='1.16.2',cubic,17.732854599599847,68.86466388561392,215.70452284057666,105.35844287910722,0.2899753586522767,True,False
2753,Ti2O3,"[Element O, Element Ti]",Ti2 O3,crystal_system=<CrystalSystem.trig: 'Trigonal'> symbol='R-3c' number=167 point_group='-3m' symprec=0.1 version='1.16.2',trig,4.602205288902889,103.7211155286214,215.71230432270406,87.16059475639025,0.32195106103555315,True,True
2754,HfNbTc2,"[Element Hf, Element Nb, Element Tc]",Hf1 Nb1 Tc2,crystal_system=<CrystalSystem.cubic: 'Cubic'> symbol='Fm-3m' number=225 point_group='m-3m' symprec=0.1 version='1.16.2',cubic,11.7002314672382,66.33458070899358,215.82734693439977,91.94932188797988,0.31347290662652993,True,False
2755,CoPt,"[Element Co, Element Pt]",Co1 Pt1,crystal_system=<CrystalSystem.tet: 'Tetragonal'> symbol='P4/mmm' number=123 point_group='4/mmm' symprec=0.1 version='1.16.2',tet,15.790161995450742,53.42636459425499,215.90012018618216,107.9990659287136,0.28563090930729795,True,True
2756,Be2PtRh,"[Element Be, Element Pt, Element Rh]",Be2 Pt1 Rh1,crystal_system=<CrystalSystem.cubic: 'Cubic'> symbol='Fm-3m' number=225 point_group='m-3m' symprec=0.1 version='1.16.2',cubic,12.047929890472002,43.55547978198444,216.00008362594082,113.5193381637257,0.2763957622417797,True,False
2757,Zr2Fe12P7,"[Element Fe, Element P, Element Zr]",Zr2 Fe12 P7,crystal_system=<CrystalSystem.hex_: 'Hexagonal'> symbol='P-6' number=174 point_group='-6' symprec=0.1 version='1.16.2',hex_,7.109431661763054,249.779132718744,216.06789505879573,126.68007096919322,0.2547759842082817,True,True
2758,Be2NiIr,"[Element Be, Element Ir, Element Ni]",Be2 Ni1 Ir1,crystal_system=<CrystalSystem.cubic: 'Cubic'> symbol='Fm-3m' number=225 point_group='m-3m' symprec=0.1 version='1.16.2',cubic,11.357356823943212,39.32047649039191,216.13201580379732,114.47393914196797,0.2749145834289007,True,False
2759,Be2IrPd,"[Element Be, Element Ir, Element Pd]",Be2 Ir1 Pd1,crystal_system=<CrystalSystem.cubic: 'Cubic'> symbol='Fm-3m' number=225 point_group='m-3m' symprec=0.1 version='1.16.2',cubic,12.028071891349988,43.71677942688333,216.28806124783068,111.91877791777921,0.27933500704315933,True,False
2760,V3Rh,"[Element Rh, Element V]",V3 Rh1,crystal_system=<CrystalSystem.cubic: 'Cubic'> symbol='Pm-3n' number=223 point_group='m-3m' symprec=0.1 version='1.16.2',cubic,7.9106340743900265,107.36172385381433,216.60926312009008,105.26845179030232,0.29088403692110776,True,True
2761,GaIr,"[Element Ga, Element Ir]",Ga1 Ir1,crystal_system=<CrystalSystem.cubic: 'Cubic'> symbol='Pm-3m' number=221 point_group='m-3m' symprec=0.1 version='1.16.2',cubic,15.659139537790393,27.77685210962619,216.8269146865349,67.745345491018,0.35851527852447274,True,True
2762,TaZnRh2,"[Element Rh, Element Ta, Element Zn]",Ta1 Zn1 Rh2,crystal_system=<CrystalSystem.cubic: 'Cubic'> symbol='Fm-3m' number=225 point_group='m-3m' symprec=0.1 version='1.16.2',cubic,12.819254264347114,58.5714593000891,216.9282489314307,-138.697532610287,0.9062712232465046,True,False
2763,MnPt3,"[Element Mn, Element Pt]",Mn1 Pt3,crystal_system=<CrystalSystem.cubic: 'Cubic'> symbol='Pm-3m' number=221 point_group='m-3m' symprec=0.1 version='1.16.2',cubic,17.770779853853078,59.82070502890271,217.2037946428863,91.60467384784718,0.31511835039886793,True,True
2764,TaTiMn2,"[Element Mn, Element Ta, Element Ti]",Ta1 Ti1 Mn2,crystal_system=<CrystalSystem.cubic: 'Cubic'> symbol='Fm-3m' number=225 point_group='m-3m' symprec=0.1 version='1.16.2',cubic,10.297582404795573,54.61569182760169,217.39864905102445,89.18941404407747,0.3195484722680678,True,False
2765,AlVFe2,"[Element Al, Element Fe, Element V]",Al1 V1 Fe2,crystal_system=<CrystalSystem.cubic: 'Cubic'> symbol='Fm-3m' number=225 point_group='m-3m' symprec=0.1 version='1.16.2',cubic,6.956591127539882,45.26065315029953,217.57954922890167,136.84269373736277,0.2400343323262485,True,True
2766,ScB12,"[Element B, Element Sc]",Sc1 B12,crystal_system=<CrystalSystem.cubic: 'Cubic'> symbol='Fm-3m' number=225 point_group='m-3m' symprec=0.1 version='1.16.2',cubic,2.858596427327489,101.47501045118705,217.70201647065267,187.86660160191536,0.16491193017616426,True,True
2767,V3Pt,"[Element Pt, Element V]",V3 Pt1,crystal_system=<CrystalSystem.cubic: 'Cubic'> symbol='Pm-3n' number=223 point_group='m-3m' symprec=0.1 version='1.16.2',cubic,10.525870438022965,109.77061882983166,217.71004408985823,93.53026705758647,0.3121027970509696,True,True
2768,UN,"[Element N, Element U]",U1 N1,crystal_system=<CrystalSystem.cubic: 'Cubic'> symbol='Fm-3m' number=225 point_group='m-3m' symprec=0.1 version='1.16.2',cubic,14.428181812480204,29.006771748423017,217.75567084172945,78.76733263357576,0.3385991043565873,True,True
2769,NbNiP,"[Element Nb, Element Ni, Element P]",Nb1 Ni1 P1,crystal_system=<CrystalSystem.ortho: 'Orthorhombic'> symbol='Pnma' number=62 point_group='mmm' symprec=0.1 version='1.16.2',ortho,7.792045285566307,155.6307685121479,217.78277140493827,98.20021457428291,0.30400424427846856,True,True
2770,Mn2AlB2,"[Element Al, Element B, Element Mn]",Mn2 Al1 B2,crystal_system=<CrystalSystem.ortho: 'Orthorhombic'> symbol='Cmmm' number=65 point_group='mmm' symprec=0.1 version='1.16.2',ortho,5.909460649833961,44.53225601188372,217.78500229954847,157.6319383244413,0.2084442494673947,True,True
2771,NbZnRu2,"[Element Nb, Element Ru, Element Zn]",Nb1 Zn1 Ru2,crystal_system=<CrystalSystem.cubic: 'Cubic'> symbol='Fm-3m' number=225 point_group='m-3m' symprec=0.1 version='1.16.2',cubic,10.20428777272768,58.65673857766474,217.80214291482233,76.57547602877804,0.34264923103971034,True,False
2772,Be2W,"[Element Be, Element W]",Be2 W1,crystal_system=<CrystalSystem.hex_: 'Hexagonal'> symbol='P6_3/mmc' number=194 point_group='6/mmm' symprec=0.1 version='1.16.2',hex_,10.727997088686543,124.98275672720283,217.99672376384615,169.6354016975145,0.19105730699591358,True,True
2773,MnAlRu2,"[Element Al, Element Mn, Element Ru]",Mn1 Al1 Ru2,crystal_system=<CrystalSystem.cubic: 'Cubic'> symbol='Fm-3m' number=225 point_group='m-3m' symprec=0.1 version='1.16.2',cubic,8.950192436050491,52.701887605231775,218.07298246583295,127.44013755053899,0.2554429929788174,True,False
2774,Be2CoIr,"[Element Be, Element Co, Element Ir]",Be2 Co1 Ir1,crystal_system=<CrystalSystem.cubic: 'Cubic'> symbol='Fm-3m' number=225 point_group='m-3m' symprec=0.1 version='1.16.2',cubic,11.391099619486154,39.238957246033586,218.41776030679137,111.41498650794571,0.28201461197486727,True,False
2775,Si2W,"[Element Si, Element W]",Si2 W1,crystal_system=<CrystalSystem.tet: 'Tetragonal'> symbol='I4/mmm' number=139 point_group='4/mmm' symprec=0.1 version='1.16.2',tet,9.885777523462718,40.31525501841682,218.47991738530078,188.7510024688689,0.16461785780969806,True,True
2776,MoO2,"[Element Mo, Element O]",Mo1 O2,crystal_system=<CrystalSystem.tet: 'Tetragonal'> symbol='P4_2/mnm' number=136 point_group='mmm' symprec=0.1 version='1.16.2',tet,6.1987184265570905,137.09116040744064,218.70097899852112,88.71127303382022,0.3213421444450144,True,True
2777,AlGeRu2,"[Element Al, Element Ge, Element Ru]",Al1 Ge1 Ru2,crystal_system=<CrystalSystem.cubic: 'Cubic'> symbol='Fm-3m' number=225 point_group='m-3m' symprec=0.1 version='1.16.2',cubic,9.419936073827103,53.194291311049604,218.78262594465167,93.47518994606278,0.31300550630668295,True,False
2778,HfRh3,"[Element Hf, Element Rh]",Hf1 Rh3,crystal_system=<CrystalSystem.cubic: 'Cubic'> symbol='Pm-3m' number=221 point_group='m-3m' symprec=0.1 version='1.16.2',cubic,13.490485349376131,59.97007563474106,219.04991187066042,116.30497593329028,0.27444385392469856,True,True
2779,Al2IrRu,"[Element Al, Element Ir, Element Ru]",Al2 Ir1 Ru1,crystal_system=<CrystalSystem.cubic: 'Cubic'> symbol='Fm-3m' number=225 point_group='m-3m' symprec=0.1 version='1.16.2',cubic,10.8488540228949,53.15052795932086,219.28211030388562,125.18227635411318,0.26019597140026707,True,False
2780,MnCo2Si,"[Element Co, Element Mn, Element Si]",Mn1 Co2 Si1,crystal_system=<CrystalSystem.cubic: 'Cubic'> symbol='Fm-3m' number=225 point_group='m-3m' symprec=0.1 version='1.16.2',cubic,7.659730663536695,43.550563304037844,219.29238803642332,107.38652773962093,0.2895107355475605,True,True
2781,MoP,"[Element Mo, Element P]",Mo1 P1,crystal_system=<CrystalSystem.hex_: 'Hexagonal'> symbol='P-6m2' number=187 point_group='-6m2' symprec=0.1 version='1.16.2',hex_,7.308129077004535,28.837101489257634,219.4598366019629,134.45712730411555,0.24561507186228848,True,True
2782,MnNbRu2,"[Element Mn, Element Nb, Element Ru]",Mn1 Nb1 Ru2,crystal_system=<CrystalSystem.cubic: 'Cubic'> symbol='Fm-3m' number=225 point_group='m-3m' symprec=0.1 version='1.16.2',cubic,9.750712297422915,59.60208779492318,219.5500482296756,88.19212626242148,0.32286997597886075,True,False
2783,NbRh,"[Element Nb, Element Rh]",Nb1 Rh1,crystal_system=<CrystalSystem.tet: 'Tetragonal'> symbol='P4/mmm' number=123 point_group='4/mmm' symprec=0.1 version='1.16.2',tet,10.268198231003392,63.33209958152857,219.7922922619129,79.29594479602915,0.3389761830693305,True,True
2784,SiRh2,"[Element Rh, Element Si]",Si1 Rh2,crystal_system=<CrystalSystem.ortho: 'Orthorhombic'> symbol='Pnma' number=62 point_group='mmm' symprec=0.1 version='1.16.2',ortho,9.830593565780013,158.03492360542506,219.9526258540418,72.80973015164452,0.3509356847803575,True,True
2785,LiPt7,"[Element Li, Element Pt]",Li1 Pt7,crystal_system=<CrystalSystem.cubic: 'Cubic'> symbol='Fm-3m' number=225 point_group='m-3m' symprec=0.1 version='1.16.2',cubic,19.209238065178866,118.64801804257347,219.95997014125442,82.63010120778404,0.333072753403922,True,True
2786,CoPt3,"[Element Co, Element Pt]",Co1 Pt3,crystal_system=<CrystalSystem.cubic: 'Cubic'> symbol='Pm-3m' number=221 point_group='m-3m' symprec=0.1 version='1.16.2',cubic,18.399920138358194,58.13583289379899,220.6369594761534,91.38940681276743,0.3180219589652047,True,True
2787,TiPRu,"[Element P, Element Ru, Element Ti]",Ti1 P1 Ru1,crystal_system=<CrystalSystem.hex_: 'Hexagonal'> symbol='P-62m' number=189 point_group='-6m2' symprec=0.1 version='1.16.2',hex_,7.284521029608494,123.03438246186141,220.81060923317602,103.19971357142953,0.2978145334762788,True,True
2788,AlZnIr2,"[Element Al, Element Ir, Element Zn]",Al1 Zn1 Ir2,crystal_system=<CrystalSystem.cubic: 'Cubic'> symbol='Fm-3m' number=225 point_group='m-3m' symprec=0.1 version='1.16.2',cubic,14.676179574337322,53.95040107326919,220.99716975734074,108.83930680980882,0.2884783079231133,True,False
2789,HfPRu,"[Element Hf, Element P, Element Ru]",Hf1 P1 Ru1,crystal_system=<CrystalSystem.hex_: 'Hexagonal'> symbol='P-62m' number=189 point_group='-6m2' symprec=0.1 version='1.16.2',hex_,11.581918534870868,133.5668460488828,221.0704280268864,94.93711603789191,0.3121664913695393,True,True
2790,ZrC,"[Element C, Element Zr]",Zr1 C1,crystal_system=<CrystalSystem.cubic: 'Cubic'> symbol='Fm-3m' number=225 point_group='m-3m' symprec=0.1 version='1.16.2',cubic,6.550574767916145,26.169497861218133,221.25196351284131,158.94174532912507,0.21020626825765903,True,True
2791,NbSiRh,"[Element Nb, Element Rh, Element Si]",Nb1 Si1 Rh1,crystal_system=<CrystalSystem.ortho: 'Orthorhombic'> symbol='Pnma' number=62 point_group='mmm' symprec=0.1 version='1.16.2',ortho,8.417432603254063,176.6763638858986,221.40069908563788,112.30669350351003,0.28305456131373014,True,True
2792,TaNi3,"[Element Ni, Element Ta]",Ta1 Ni3,crystal_system=<CrystalSystem.tet: 'Tetragonal'> symbol='I4/mmm' number=139 point_group='4/mmm' symprec=0.1 version='1.16.2',tet,12.31760096600835,48.131050547037844,221.47195867297486,96.43473762692565,0.30988106752356637,True,True
2793,PW,"[Element P, Element W]",P1 W1,crystal_system=<CrystalSystem.ortho: 'Orthorhombic'> symbol='Pnma' number=62 point_group='mmm' symprec=0.1 version='1.16.2',ortho,12.248319765384405,116.49161703058118,221.65212492480742,117.5741557290909,0.27462702512046644,True,True
2794,Ta2Co,"[Element Co, Element Ta]",Ta2 Co1,crystal_system=<CrystalSystem.tet: 'Tetragonal'> symbol='I4/mcm' number=140 point_group='4/mmm' symprec=0.1 version='1.16.2',tet,15.20657722523519,91.90798294494512,221.74982214341398,79.12920045582155,0.3405464772650451,True,True
2795,TiNbTc2,"[Element Nb, Element Tc, Element Ti]",Ti1 Nb1 Tc2,crystal_system=<CrystalSystem.cubic: 'Cubic'> symbol='Fm-3m' number=225 point_group='m-3m' symprec=0.1 version='1.16.2',cubic,9.014874721993408,62.03362457346148,221.7966076446142,95.7744667514414,0.31126058845119836,True,False
2796,TaAlFe2,"[Element Al, Element Fe, Element Ta]",Ta1 Al1 Fe2,crystal_system=<CrystalSystem.cubic: 'Cubic'> symbol='Fm-3m' number=225 point_group='m-3m' symprec=0.1 version='1.16.2',cubic,10.521012213052666,50.445767030935194,221.80461477184306,137.1272166932606,0.24370055934416784,False,False
2797,BeVFe2,"[Element Be, Element Fe, Element V]",Be1 V1 Fe2,crystal_system=<CrystalSystem.cubic: 'Cubic'> symbol='Fm-3m' number=225 point_group='m-3m' symprec=0.1 version='1.16.2',cubic,6.971491766083692,40.883794897771324,222.3334496306323,109.71824265176792,0.28811198062020404,True,False
2798,Zn(BIr)2,"[Element B, Element Ir, Element Zn]",Zn1 B2 Ir2,crystal_system=<CrystalSystem.tet: 'Tetragonal'> symbol='I4/mmm' number=139 point_group='4/mmm' symprec=0.1 version='1.16.2',tet,14.03363221538006,55.78641644723813,222.37771520559224,110.10418317043086,0.28750856573840283,True,True
2799,B13C2,"[Element B, Element C]",B13 C2,crystal_system=<CrystalSystem.trig: 'Trigonal'> symbol='R-3m' number=166 point_group='-3m' symprec=0.1 version='1.16.2',trig,2.4543745622679456,111.33818748474972,222.38536381920943,158.8343419746464,0.2115565709738883,True,True
2800,Ni4Mo,"[Element Mo, Element Ni]",Ni4 Mo1,crystal_system=<CrystalSystem.tet: 'Tetragonal'> symbol='I4/m' number=87 point_group='4/m' symprec=0.1 version='1.16.2',tet,9.69091933392666,56.667776681762,222.52061709187234,90.77379544160317,0.320447985332307,True,True
2801,ScCo3B2,"[Element B, Element Co, Element Sc]",Sc1 Co3 B2,crystal_system=<CrystalSystem.hex_: 'Hexagonal'> symbol='P6/mmm' number=191 point_group='6/mmm' symprec=0.1 version='1.16.2',hex_,6.707404953039917,60.252488783558796,222.54461993352055,129.2888680165905,0.2566472943291658,True,True
2802,LiVIr2,"[Element Ir, Element Li, Element V]",Li1 V1 Ir2,crystal_system=<CrystalSystem.cubic: 'Cubic'> symbol='Fm-3m' number=225 point_group='m-3m' symprec=0.1 version='1.16.2',cubic,14.366214103785351,51.12577487330151,222.6030647665841,110.09180427283155,0.2877137235814478,True,False
2803,Nb3Ir,"[Element Ir, Element Nb]",Nb3 Ir1,crystal_system=<CrystalSystem.cubic: 'Cubic'> symbol='Pm-3n' number=223 point_group='m-3m' symprec=0.1 version='1.16.2',cubic,11.304165686660246,138.35746573789768,222.78522535643296,103.56240119570859,0.2987563624057585,True,True
2804,HfW2,"[Element Hf, Element W]",Hf1 W2,crystal_system=<CrystalSystem.cubic: 'Cubic'> symbol='Fd-3m' number=227 point_group='m-3m' symprec=0.1 version='1.16.2',cubic,16.601227410195182,109.26139370248636,222.88276511245843,94.04851186336442,0.31503427513638893,True,True
2805,ScTc2W,"[Element Sc, Element Tc, Element W]",Sc1 Tc2 W1,crystal_system=<CrystalSystem.cubic: 'Cubic'> symbol='Fm-3m' number=225 point_group='m-3m' symprec=0.1 version='1.16.2',cubic,11.245108695423331,62.72862506834317,222.92437833713143,84.48972392872581,0.33175250924835076,True,False
2806,Be2RuPt,"[Element Be, Element Pt, Element Ru]",Be2 Ru1 Pt1,crystal_system=<CrystalSystem.cubic: 'Cubic'> symbol='Fm-3m' number=225 point_group='m-3m' symprec=0.1 version='1.16.2',cubic,11.905855544861879,43.81923208598171,223.09056518310504,104.35232497535448,0.29766852720411324,True,False
2807,BeFe2Si,"[Element Be, Element Fe, Element Si]",Be1 Fe2 Si1,crystal_system=<CrystalSystem.cubic: 'Cubic'> symbol='Fm-3m' number=225 point_group='m-3m' symprec=0.1 version='1.16.2',cubic,6.469758666528961,38.188095000831,223.15535637072225,121.94770211645213,0.2688673613921271,True,False
2808,Nb3Os,"[Element Nb, Element Os]",Nb3 Os1,crystal_system=<CrystalSystem.cubic: 'Cubic'> symbol='Pm-3n' number=223 point_group='m-3m' symprec=0.1 version='1.16.2',cubic,11.263244869600504,138.27424978039966,223.3507930045787,91.26527594271738,0.32018292492913947,True,True
2809,Nb2PC,"[Element C, Element Nb, Element P]",Nb2 P1 C1,crystal_system=<CrystalSystem.hex_: 'Hexagonal'> symbol='P6_3/mmc' number=194 point_group='6/mmm' symprec=0.1 version='1.16.2',hex_,6.869580304384295,110.61133537316,223.55794439869842,140.2962216147308,0.240502955474495,True,True
2810,NbGeIr,"[Element Ge, Element Ir, Element Nb]",Nb1 Ge1 Ir1,crystal_system=<CrystalSystem.ortho: 'Orthorhombic'> symbol='Pnma' number=62 point_group='mmm' symprec=0.1 version='1.16.2',ortho,12.626014472585375,188.20826488953446,223.7470427313795,93.39476059621336,0.3167858153820837,True,True
2811,MnZnIr2,"[Element Ir, Element Mn, Element Zn]",Mn1 Zn1 Ir2,crystal_system=<CrystalSystem.cubic: 'Cubic'> symbol='Fm-3m' number=225 point_group='m-3m' symprec=0.1 version='1.16.2',cubic,15.436978913975482,54.29874912524635,224.17018799097877,79.87157094892451,0.3407626246523923,True,False
2812,TaGaFe2,"[Element Fe, Element Ga, Element Ta]",Ta1 Ga1 Fe2,crystal_system=<CrystalSystem.cubic: 'Cubic'> symbol='Fm-3m' number=225 point_group='m-3m' symprec=0.1 version='1.16.2',cubic,11.943548384765652,50.37986853346356,224.20117297523527,124.38642620644605,0.26589461328934133,False,False
2813,HfSiRu2,"[Element Hf, Element Ru, Element Si]",Hf1 Si1 Ru2,crystal_system=<CrystalSystem.cubic: 'Cubic'> symbol='Fm-3m' number=225 point_group='m-3m' symprec=0.1 version='1.16.2',cubic,11.715142542101077,57.93254776336947,224.26870850491193,106.26589112667452,0.29539909881864035,False,False
2814,Mn2VGe,"[Element Ge, Element Mn, Element V]",Mn2 V1 Ge1,crystal_system=<CrystalSystem.cubic: 'Cubic'> symbol='Fm-3m' number=225 point_group='m-3m' symprec=0.1 version='1.16.2',cubic,8.241697999992034,47.03708490527803,224.38615029049373,105.38976198154435,0.29694944980605875,True,False
2815,TaCuRh2,"[Element Cu, Element Rh, Element Ta]",Ta1 Cu1 Rh2,crystal_system=<CrystalSystem.cubic: 'Cubic'> symbol='Fm-3m' number=225 point_group='m-3m' symprec=0.1 version='1.16.2',cubic,13.166298144591506,56.792641098423516,224.49644092184258,51.165500366255834,0.39408991964243567,True,False
2816,Ta3AlC2,"[Element Al, Element C, Element Ta]",Ta3 Al1 C2,crystal_system=<CrystalSystem.hex_: 'Hexagonal'> symbol='P6_3/mmc' number=194 point_group='6/mmm' symprec=0.1 version='1.16.2',hex_,12.420085964474717,158.79204800234294,224.5853602331403,159.44176365515276,0.2129581562131939,True,True