,Formula,Elements,Composition,Symmetry,Crystal system,Density [g/m$^3$],Volume [$\mathring{A}^3$],Bulk modulus[GPa],Shear modulus [GPa],Poisson,Metal,Experimental report
892,CaGa3Ni2,"[Element Ca, Element Ga, Element Ni]",Ca1 Ga3 Ni2,crystal_system=<CrystalSystem.ortho: 'Orthorhombic'> symbol='Cmcm' number=63 point_group='mmm' symprec=0.1 version='1.16.2',ortho,6.282727432930282,193.80428469489095,84.59408069327993,39.05340725411935,0.29995567133162676,True,True
893,Li6WN4,"[Element Li, Element N, Element W]",Li6 W1 N4,crystal_system=<CrystalSystem.tet: 'Tetragonal'> symbol='P4_2/nmc' number=137 point_group='4/mmm' symprec=0.1 version='1.16.2',tet,4.345101703306608,215.16780690873796,84.67706931532871,67.81062093229366,0.18395676922122722,False,True
894,Sr(CoP)2,"[Element Co, Element P, Element Sr]",Sr1 Co2 P2,crystal_system=<CrystalSystem.tet: 'Tetragonal'> symbol='I4/mmm' number=139 point_group='4/mmm' symprec=0.1 version='1.16.2',tet,5.38063031317129,82.53391072857515,84.68476646157055,45.20901284751676,0.2733984872203385,True,True
895,Li2GaPt,"[Element Ga, Element Li, Element Pt]",Li2 Ga1 Pt1,crystal_system=<CrystalSystem.cubic: 'Cubic'> symbol='F-43m' number=216 point_group='-43m' symprec=0.1 version='1.16.2',cubic,8.548155380155054,54.137290602606384,84.70138796679277,30.31992500333141,0.34009832753514035,True,True
896,ZnSiP2,"[Element P, Element Si, Element Zn]",Zn1 Si1 P2,crystal_system=<CrystalSystem.tet: 'Tetragonal'> symbol='I-42d' number=122 point_group='-42m' symprec=0.1 version='1.16.2',tet,3.418565574455873,151.00927439980956,84.8541928373518,53.579366234709255,0.2391817286734129,False,True
897,NbZn16,"[Element Nb, Element Zn]",Nb1 Zn16,crystal_system=<CrystalSystem.ortho: 'Orthorhombic'> symbol='Cmcm' number=63 point_group='mmm' symprec=0.1 version='1.16.2',ortho,7.644450086150681,495.0262868143004,84.89575160239434,32.524836732400686,0.3301350934179693,True,True
898,V2Cd2O7,"[Element Cd, Element O, Element V]",V2 Cd2 O7,crystal_system=<CrystalSystem.mono: 'Monoclinic'> symbol='C2/m' number=12 point_group='2/m' symprec=0.1 version='1.16.2',mono,4.666466122765736,156.1095265204487,85.07562369798872,25.947008580625305,0.36157849044875184,False,True
899,AlP,"[Element Al, Element P]",Al1 P1,crystal_system=<CrystalSystem.cubic: 'Cubic'> symbol='F-43m' number=216 point_group='-43m' symprec=0.1 version='1.16.2',cubic,2.3481923106714797,40.983457924417976,85.17136892901664,47.201071274206676,0.26611147361437293,False,True
900,BaNiO3,"[Element Ba, Element Ni, Element O]",Ba1 Ni1 O3,crystal_system=<CrystalSystem.hex_: 'Hexagonal'> symbol='P6_3mc' number=186 point_group='6mm' symprec=0.1 version='1.16.2',hex_,6.06909148531972,133.5298435547286,85.17540590237334,23.849799979548962,0.37194784911908163,False,True
901,LiSc2Rh,"[Element Li, Element Rh, Element Sc]",Li1 Sc2 Rh1,crystal_system=<CrystalSystem.cubic: 'Cubic'> symbol='Fm-3m' number=225 point_group='m-3m' symprec=0.1 version='1.16.2',cubic,4.714767395436385,70.35479654873592,85.22227686817345,29.242282685819266,0.346044152388943,True,False
902,Li2GeN2,"[Element Ge, Element Li, Element N]",Li2 Ge1 N2,crystal_system=<CrystalSystem.mono: 'Monoclinic'> symbol='P2_1/c' number=14 point_group='2/m' symprec=0.1 version='1.16.2',mono,3.6620451854372886,207.74239156303233,85.28838483926913,38.94747788431574,0.30183611417713163,False,False
903,Li6CrN4,"[Element Cr, Element Li, Element N]",Li6 Cr1 N4,crystal_system=<CrystalSystem.tet: 'Tetragonal'> symbol='P4_2/nmc' number=137 point_group='4/mmm' symprec=0.1 version='1.16.2',tet,2.4147376826792577,205.8451791991688,85.347912191967,71.75594400259163,0.17164728222450423,False,False
904,CdCuF4,"[Element Cd, Element Cu, Element F]",Cd1 Cu1 F4,crystal_system=<CrystalSystem.tet: 'Tetragonal'> symbol='I4/mcm' number=140 point_group='4/mmm' symprec=0.1 version='1.16.2',tet,5.703995423592498,146.69501089631282,85.38628080257614,30.666766676585503,0.33962328133205055,False,True
905,LiCrN2,"[Element Cr, Element Li, Element N]",Li1 Cr1 N2,crystal_system=<CrystalSystem.tet: 'Tetragonal'> symbol='I-42d' number=122 point_group='-42m' symprec=0.1 version='1.16.2',tet,3.212840288779315,89.87978805834804,85.40765229175119,47.633142437205635,0.2648567403534797,True,False
906,Ba2PbO4,"[Element Ba, Element O, Element Pb]",Ba2 Pb1 O4,crystal_system=<CrystalSystem.tet: 'Tetragonal'> symbol='I4/mmm' number=139 point_group='4/mmm' symprec=0.1 version='1.16.2',tet,7.203059759468319,125.83651068209677,85.42012996976737,43.57738706231466,0.28199518001475954,False,True
907,Sc2GaCu,"[Element Cu, Element Ga, Element Sc]",Sc2 Ga1 Cu1,crystal_system=<CrystalSystem.cubic: 'Cubic'> symbol='Fm-3m' number=225 point_group='m-3m' symprec=0.1 version='1.16.2',cubic,5.158506511345528,71.84259171775527,85.45231861961648,45.87109262271373,0.2723353630486483,True,False
908,MnF2,"[Element F, Element Mn]",Mn1 F2,crystal_system=<CrystalSystem.tet: 'Tetragonal'> symbol='P4_2/mnm' number=136 point_group='4/mmm' symprec=0.1 version='1.16.2',tet,3.9261829704143527,78.6116961747604,85.48020947099556,29.655621999265094,0.3445158476044372,False,True
909,Li3InN2,"[Element In, Element Li, Element N]",Li3 In1 N2,crystal_system=<CrystalSystem.cubic: 'Cubic'> symbol='Ia-3' number=206 point_group='m-3' symprec=0.1 version='1.16.2',cubic,4.078534193669254,533.043513608989,85.58064157643577,58.43810271321328,0.22188226906031988,False,False
910,ZrSiSe,"[Element Se, Element Si, Element Zr]",Zr1 Si1 Se1,crystal_system=<CrystalSystem.tet: 'Tetragonal'> symbol='P4/nmm' number=129 point_group='4/mmm' symprec=0.1 version='1.16.2',tet,5.852193995803967,112.51651968520187,85.62623297576248,60.97683967941306,0.21224267502132657,True,True
911,V2H3O5,"[Element H, Element O, Element V]",V2 H3 O5,crystal_system=<CrystalSystem.mono: 'Monoclinic'> symbol='Cm' number=8 point_group='m' symprec=0.1 version='1.16.2',mono,3.574249873813769,85.90334406194127,85.65428428300194,52.04943077203875,0.2473429041616873,False,False
912,MgNiSb,"[Element Mg, Element Ni, Element Sb]",Mg1 Ni1 Sb1,crystal_system=<CrystalSystem.cubic: 'Cubic'> symbol='F-43m' number=216 point_group='-43m' symprec=0.1 version='1.16.2',cubic,6.1906979282736865,54.9226155683747,85.69248816261249,41.87105993963654,0.2899083461618092,True,True
913,LiZn2Ni,"[Element Li, Element Ni, Element Zn]",Li1 Zn2 Ni1,crystal_system=<CrystalSystem.cubic: 'Cubic'> symbol='Fm-3m' number=225 point_group='m-3m' symprec=0.1 version='1.16.2',cubic,6.699106924079112,48.69557817547045,85.69651938664815,35.28806864200825,0.3189598036553361,True,False
914,EuF3,"[Element Eu, Element F]",Eu1 F3,crystal_system=<CrystalSystem.ortho: 'Orthorhombic'> symbol='Pnma' number=62 point_group='mmm' symprec=0.1 version='1.16.2',ortho,6.8537270406773825,202.50875402961117,85.77146909953345,36.1398387318221,0.3152701525671119,True,True
915,Ca3CrN3,"[Element Ca, Element Cr, Element N]",Ca3 Cr1 N3,crystal_system=<CrystalSystem.ortho: 'Orthorhombic'> symbol='Cmcm' number=63 point_group='mmm' symprec=0.1 version='1.16.2',ortho,3.271111585996793,217.52289261538633,85.84036262305058,51.13239048005662,0.2515058436072161,True,True
916,BaCoO3,"[Element Ba, Element Co, Element O]",Ba1 Co1 O3,crystal_system=<CrystalSystem.hex_: 'Hexagonal'> symbol='P6_3/mmc' number=194 point_group='6/mmm' symprec=0.1 version='1.16.2',hex_,6.158290639687289,263.4501234018471,86.05420592175987,28.847744849455225,0.34923325806090144,True,True
917,Y2Al3Si2,"[Element Al, Element Si, Element Y]",Y2 Al3 Si2,crystal_system=<CrystalSystem.mono: 'Monoclinic'> symbol='C2/m' number=12 point_group='2/m' symprec=0.1 version='1.16.2',mono,3.9314802585184214,133.0158303331908,86.07109888079464,64.6575227194931,0.1996127297260134,True,True
918,Sr3(AlN2)2,"[Element Al, Element N, Element Sr]",Sr3 Al2 N4,crystal_system=<CrystalSystem.ortho: 'Orthorhombic'> symbol='Pnna' number=52 point_group='mmm' symprec=0.1 version='1.16.2',ortho,4.373768019282196,566.2227940193515,86.16192251784301,45.284425790523045,0.2763880717261472,False,True
919,YInNi,"[Element In, Element Ni, Element Y]",Y1 In1 Ni1,crystal_system=<CrystalSystem.hex_: 'Hexagonal'> symbol='P-62m' number=189 point_group='-6m2' symprec=0.1 version='1.16.2',hex_,7.250127859446202,180.3088595770049,86.19841085730211,34.49066481365361,0.3234783806318025,True,True
920,Ba2PdO3,"[Element Ba, Element O, Element Pd]",Ba2 Pd1 O3,crystal_system=<CrystalSystem.ortho: 'Orthorhombic'> symbol='Immm' number=71 point_group='mmm' symprec=0.1 version='1.16.2',ortho,6.675514790407871,106.73201586127794,86.21364608559091,44.21614848669691,0.2810048843723302,True,True
921,AgSbO3,"[Element Ag, Element O, Element Sb]",Ag1 Sb1 O3,crystal_system=<CrystalSystem.trig: 'Trigonal'> symbol='R-3' number=148 point_group='-3' symprec=0.1 version='1.16.2',trig,6.698918634552929,137.6369853909369,86.23639595602717,2.7047373334179543,0.4844801458185531,False,True
922,BiTePt,"[Element Bi, Element Pt, Element Te]",Bi1 Te1 Pt1,crystal_system=<CrystalSystem.cubic: 'Cubic'> symbol='P2_13' number=198 point_group='23' symprec=0.1 version='1.16.2',cubic,11.628702790859252,303.67944641750177,86.29996342991703,32.437092217566075,0.3329918917000966,True,True
923,LaN,"[Element La, Element N]",La1 N1,crystal_system=<CrystalSystem.hex_: 'Hexagonal'> symbol='P6_3mc' number=186 point_group='6mm' symprec=0.1 version='1.16.2',hex_,5.7872308255119504,87.75064955910705,86.33357130850251,21.955271177847344,0.3827826830076034,False,True
924,CdCN2,"[Element C, Element Cd, Element N]",Cd1 C1 N2,crystal_system=<CrystalSystem.trig: 'Trigonal'> symbol='R-3m' number=166 point_group='-3m' symprec=0.1 version='1.16.2',trig,4.754058841630003,53.243859006231816,86.42207626585534,24.86118828680183,0.36874979256532137,False,True
925,ZrSn2,"[Element Sn, Element Zr]",Zr1 Sn2,crystal_system=<CrystalSystem.ortho: 'Orthorhombic'> symbol='Fddd' number=70 point_group='mmm' symprec=0.1 version='1.16.2',ortho,7.966640713050733,137.00283988198353,86.5184111342651,55.26481848011528,0.23668377466945953,True,True
926,Rb2Hf2O5,"[Element Hf, Element O, Element Rb]",Rb2 Hf2 O5,crystal_system=<CrystalSystem.tet: 'Tetragonal'> symbol='P4/mmm' number=123 point_group='4/mmm' symprec=0.1 version='1.16.2',tet,6.890326276554248,146.5043280770728,86.56455487405444,39.219024558236015,0.30319157076048414,False,False
927,Y2ZnRu,"[Element Ru, Element Y, Element Zn]",Y2 Zn1 Ru1,crystal_system=<CrystalSystem.cubic: 'Cubic'> symbol='Fm-3m' number=225 point_group='m-3m' symprec=0.1 version='1.16.2',cubic,6.851185374948116,83.4466046864759,86.60181121356474,31.48888157461718,0.3378501745665271,True,False
928,FeSb2,"[Element Fe, Element Sb]",Fe1 Sb2,crystal_system=<CrystalSystem.ortho: 'Orthorhombic'> symbol='Pnnm' number=58 point_group='mmm' symprec=0.1 version='1.16.2',ortho,7.943834896054908,125.15549081202177,86.81162960459702,59.08808803199821,0.2226110844267276,True,True
929,Li14P2(N2O)3,"[Element Li, Element N, Element O, Element P]",Li14 P2 N6 O3,crystal_system=<CrystalSystem.trig: 'Trigonal'> symbol='P-3' number=147 point_group='-3' symprec=0.1 version='1.16.2',trig,2.129730460730595,227.01578314489163,86.91291959492946,69.76934689099284,0.1833541491440704,False,True
930,CaInCu4,"[Element Ca, Element Cu, Element In]",Ca1 In1 Cu4,crystal_system=<CrystalSystem.cubic: 'Cubic'> symbol='F-43m' number=216 point_group='-43m' symprec=0.1 version='1.16.2',cubic,7.31871469582665,92.81593143015691,86.93687377619646,36.70257271576769,0.3149532182917461,True,True
931,CeS,"[Element Ce, Element S]",Ce1 S1,crystal_system=<CrystalSystem.cubic: 'Cubic'> symbol='Fm-3m' number=225 point_group='m-3m' symprec=0.1 version='1.16.2',cubic,6.230328095020813,45.890565097968484,86.99224413080756,51.74055245016052,0.25181791209811505,True,True
932,Ca(AsPd)2,"[Element As, Element Ca, Element Pd]",Ca1 As2 Pd2,crystal_system=<CrystalSystem.tet: 'Tetragonal'> symbol='I4/mmm' number=139 point_group='4/mmm' symprec=0.1 version='1.16.2',tet,7.041705303416853,94.97709408347055,87.01007818638905,26.523120799707783,0.36164417678274263,True,True
933,YTiGe,"[Element Ge, Element Ti, Element Y]",Y1 Ti1 Ge1,crystal_system=<CrystalSystem.tet: 'Tetragonal'> symbol='P4/nmm' number=129 point_group='4/mmm' symprec=0.1 version='1.16.2',tet,5.4950758484738405,126.5635736655478,87.26802338860529,49.498411501559985,0.2614936544846663,True,True
934,LiZn2Pd,"[Element Li, Element Pd, Element Zn]",Li1 Zn2 Pd1,crystal_system=<CrystalSystem.cubic: 'Cubic'> symbol='Fm-3m' number=225 point_group='m-3m' symprec=0.1 version='1.16.2',cubic,7.371370336178453,55.00588767780306,87.27384533986204,20.3638529982855,0.3917527955513894,True,False
935,Ca3VN3,"[Element Ca, Element N, Element V]",Ca3 V1 N3,crystal_system=<CrystalSystem.ortho: 'Orthorhombic'> symbol='Cmcm' number=63 point_group='mmm' symprec=0.1 version='1.16.2',ortho,3.171001784184586,223.28566599546207,87.334154788657,50.16339984929856,0.25895795024513374,False,True
936,Bi(BO2)3,"[Element B, Element Bi, Element O]",Bi1 B3 O6,crystal_system=<CrystalSystem.mono: 'Monoclinic'> symbol='P2_1/c' number=14 point_group='2/m' symprec=0.1 version='1.16.2',mono,5.432359492507286,412.5516031304449,87.41195597531649,48.694876890518685,0.26508493755131096,False,True
937,SrO,"[Element O, Element Sr]",Sr1 O1,crystal_system=<CrystalSystem.cubic: 'Cubic'> symbol='Fm-3m' number=225 point_group='m-3m' symprec=0.1 version='1.16.2',cubic,4.987595380591106,34.49840025661019,87.42517203457136,56.001960263145115,0.23607010664527026,False,True
938,ErH2,"[Element Er, Element H]",Er1 H2,crystal_system=<CrystalSystem.cubic: 'Cubic'> symbol='Fm-3m' number=225 point_group='m-3m' symprec=0.1 version='1.16.2',cubic,8.494681345829683,33.089828775275016,87.44289000895489,52.800411995251125,0.2486724567448257,True,True
939,NiSb2,"[Element Ni, Element Sb]",Ni1 Sb2,crystal_system=<CrystalSystem.ortho: 'Orthorhombic'> symbol='Pnnm' number=58 point_group='mmm' symprec=0.1 version='1.16.2',ortho,7.925850902541716,126.63300466302736,87.51054094904259,41.77895198650963,0.29406424501013656,True,True
940,Ba(P2Pd)2,"[Element Ba, Element P, Element Pd]",Ba1 P4 Pd2,crystal_system=<CrystalSystem.tet: 'Tetragonal'> symbol='I4/mmm' number=139 point_group='4/mmm' symprec=0.1 version='1.16.2',tet,5.626875389211948,139.8997660772176,87.62806671300743,34.12847336986788,0.32764132772512977,True,True
941,La(FeSb3)4,"[Element Fe, Element La, Element Sb]",La1 Fe4 Sb12,crystal_system=<CrystalSystem.cubic: 'Cubic'> symbol='Im-3' number=204 point_group='m-3' symprec=0.1 version='1.16.2',cubic,7.934091581868698,381.6235275260076,87.68435148082864,56.160119359339234,0.23610055614024536,True,True
942,YCdAu2,"[Element Au, Element Cd, Element Y]",Y1 Cd1 Au2,crystal_system=<CrystalSystem.cubic: 'Cubic'> symbol='Fm-3m' number=225 point_group='m-3m' symprec=0.1 version='1.16.2',cubic,11.884774571875985,83.16824635497977,87.68621102103305,21.894480771139946,0.38474693006578486,True,False
943,Li2AlPt,"[Element Al, Element Li, Element Pt]",Li2 Al1 Pt1,crystal_system=<CrystalSystem.cubic: 'Cubic'> symbol='F-43m' number=216 point_group='-43m' symprec=0.1 version='1.16.2',cubic,7.246891708920197,54.0645729576923,87.73914365476692,38.42830616397338,0.30890676661063593,True,True
944,Ba(PdO2)2,"[Element Ba, Element O, Element Pd]",Ba1 Pd2 O4,crystal_system=<CrystalSystem.tet: 'Tetragonal'> symbol='I4_1/a' number=88 point_group='4/m' symprec=0.1 version='1.16.2',tet,6.660145063733327,206.5229786203045,87.79694028761305,27.073555513548477,0.36018824829073254,True,False
945,ScAl2,"[Element Al, Element Sc]",Sc1 Al2,crystal_system=<CrystalSystem.cubic: 'Cubic'> symbol='Fd-3m' number=227 point_group='m-3m' symprec=0.1 version='1.16.2',cubic,3.0469314770442635,107.81919267480609,87.80571071298873,69.22642004533901,0.187835133475021,True,True
946,Ca3MnN3,"[Element Ca, Element Mn, Element N]",Ca3 Mn1 N3,crystal_system=<CrystalSystem.ortho: 'Orthorhombic'> symbol='Cmcm' number=63 point_group='mmm' symprec=0.1 version='1.16.2',ortho,3.3615360268315913,214.57812074742958,87.87299542244625,50.83735785075894,0.2574988127843286,True,True
947,LiSc2Ru,"[Element Li, Element Ru, Element Sc]",Li1 Sc2 Ru1,crystal_system=<CrystalSystem.cubic: 'Cubic'> symbol='Fm-3m' number=225 point_group='m-3m' symprec=0.1 version='1.16.2',cubic,4.726479600306463,69.53559714982921,87.89557904206833,32.60473599631286,0.3349358370693105,True,False
948,Y3Al7Cu2,"[Element Al, Element Cu, Element Y]",Y3 Al7 Cu2,crystal_system=<CrystalSystem.trig: 'Trigonal'> symbol='R-3m' number=166 point_group='-3m' symprec=0.1 version='1.16.2',trig,4.419695576141117,218.9208325239194,88.00684506964323,62.92886093727346,0.2112908220093485,True,False
949,SrCuO2,"[Element Cu, Element O, Element Sr]",Sr1 Cu1 O2,crystal_system=<CrystalSystem.ortho: 'Orthorhombic'> symbol='Cmcm' number=63 point_group='mmm' symprec=0.1 version='1.16.2',ortho,5.326848344957455,114.19596967272206,88.06034832524175,41.6968537864426,0.29552206637755374,True,True
950,Zn13Rh,"[Element Rh, Element Zn]",Zn13 Rh1,crystal_system=<CrystalSystem.mono: 'Monoclinic'> symbol='C2/m' number=12 point_group='2/m' symprec=0.1 version='1.16.2',mono,7.9064934519143355,200.1978765983639,88.06784380977732,39.62601737205361,0.30436719768512077,True,True
951,MnZn3,"[Element Mn, Element Zn]",Mn1 Zn3,crystal_system=<CrystalSystem.cubic: 'Cubic'> symbol='Pm-3m' number=221 point_group='m-3m' symprec=0.1 version='1.16.2',cubic,7.54770406130931,55.25777984921383,88.10285835311089,39.80511782805539,0.30366659529469936,True,True
952,LiAlCu2,"[Element Al, Element Cu, Element Li]",Li1 Al1 Cu2,crystal_system=<CrystalSystem.cubic: 'Cubic'> symbol='Fm-3m' number=225 point_group='m-3m' symprec=0.1 version='1.16.2',cubic,5.408547279616362,49.43488848540468,88.1385886663614,39.80106152387964,0.30375315602384656,True,False
953,AsPd3Pb2,"[Element As, Element Pb, Element Pd]",As1 Pd3 Pb2,crystal_system=<CrystalSystem.ortho: 'Orthorhombic'> symbol='Cmc2_1' number=36 point_group='mm2' symprec=0.1 version='1.16.2',ortho,11.097355461273024,241.98221639733072,88.17412886963564,28.283006533846873,0.3551102172490151,True,True
954,LiMgSnPt,"[Element Li, Element Mg, Element Pt, Element Sn]",Li1 Mg1 Sn1 Pt1,crystal_system=<CrystalSystem.cubic: 'Cubic'> symbol='F-43m' number=216 point_group='-43m' symprec=0.1 version='1.16.2',cubic,8.350812616468664,68.61037672067299,88.20701610429569,39.524178484347544,0.30507250318925483,True,True
955,Li2FeSiO4,"[Element Fe, Element Li, Element O, Element Si]",Li2 Fe1 Si1 O4,crystal_system=<CrystalSystem.ortho: 'Orthorhombic'> symbol='Pmn2_1' number=31 point_group='mm2' symprec=0.1 version='1.16.2',ortho,3.1292726670855937,343.4561586743354,88.21023477948418,44.521012587986334,0.2839846417612818,False,True
956,TlAgO2,"[Element Ag, Element O, Element Tl]",Tl1 Ag1 O2,crystal_system=<CrystalSystem.hex_: 'Hexagonal'> symbol='P6_3/mmc' number=194 point_group='6/mmm' symprec=0.1 version='1.16.2',hex_,8.767590575771955,130.39866925775988,88.2749935590432,18.94718575866511,0.39984648954488616,True,False
957,Sr2Co2O5,"[Element Co, Element O, Element Sr]",Sr2 Co2 O5,crystal_system=<CrystalSystem.tri: 'Triclinic'> symbol='P1' number=1 point_group='1' symprec=0.1 version='1.16.2',tri,5.077583795068367,244.03447780719642,88.27881726642502,45.125803598156836,0.28162274851676644,True,False
958,HoH2,"[Element H, Element Ho]",Ho1 H2,crystal_system=<CrystalSystem.cubic: 'Cubic'> symbol='Fm-3m' number=225 point_group='m-3m' symprec=0.1 version='1.16.2',cubic,8.16935040776351,33.934238743997085,88.37940197571785,43.33766701430929,0.2892655269872606,True,True
959,Ca4HfN4,"[Element Ca, Element Hf, Element N]",Ca4 Hf1 N4,crystal_system=<CrystalSystem.tri: 'Triclinic'> symbol='P-1' number=2 point_group='-1' symprec=0.1 version='1.16.2',tri,4.319646904249047,303.5565922640042,88.39563996003551,41.79720336627996,0.29576857465328893,False,False