,Formula,Elements,Composition,Symmetry,Crystal system,Density [g/m$^3$],Volume [$\mathring{A}^3$],Bulk modulus[GPa],Shear modulus [GPa],Poisson,Metal,Experimental report
1580,YSiRh,"[Element Rh, Element Si, Element Y]",Y1 Si1 Rh1,crystal_system=<CrystalSystem.ortho: 'Orthorhombic'> symbol='Pnma' number=62 point_group='mmm' symprec=0.1 version='1.16.2',ortho,6.7612908342024545,216.02224723134668,124.01255503962818,61.62565616909852,0.2868427424779554,True,True
1581,Ba3Hf2O7,"[Element Ba, Element Hf, Element O]",Ba3 Hf2 O7,crystal_system=<CrystalSystem.tet: 'Tetragonal'> symbol='I4/mmm' number=139 point_group='4/mmm' symprec=0.1 version='1.16.2',tet,7.703156572421853,189.90438122783766,124.04486935834906,70.91067534188682,0.2599206740392427,False,False
1582,ScSnPd2,"[Element Pd, Element Sc, Element Sn]",Sc1 Sn1 Pd2,crystal_system=<CrystalSystem.cubic: 'Cubic'> symbol='Fm-3m' number=225 point_group='m-3m' symprec=0.1 version='1.16.2',cubic,8.900655993861474,70.2423255221914,124.1203016077652,31.743923111199642,0.38216947342554913,True,True
1583,CrP4,"[Element Cr, Element P]",Cr1 P4,crystal_system=<CrystalSystem.mono: 'Monoclinic'> symbol='C2/c' number=15 point_group='2/m' symprec=0.1 version='1.16.2',mono,3.9397606176562094,148.26998443214006,124.27715450844846,99.88641223106069,0.18304642995180703,True,True
1584,CoS2,"[Element Co, Element S]",Co1 S2,crystal_system=<CrystalSystem.cubic: 'Cubic'> symbol='Pa-3' number=205 point_group='m-3' symprec=0.1 version='1.16.2',cubic,4.849095401441955,168.5685481851701,124.28165948982394,73.28001327261786,0.25361160673896316,True,True
1585,Sc2AgOs,"[Element Ag, Element Os, Element Sc]",Sc2 Ag1 Os1,crystal_system=<CrystalSystem.cubic: 'Cubic'> symbol='Fm-3m' number=225 point_group='m-3m' symprec=0.1 version='1.16.2',cubic,9.022471088391645,71.4112349900872,124.32113400907049,45.52507668680143,0.3368231898759903,True,False
1586,Sc2NiRu,"[Element Ni, Element Ru, Element Sc]",Sc2 Ni1 Ru1,crystal_system=<CrystalSystem.cubic: 'Cubic'> symbol='Fm-3m' number=225 point_group='m-3m' symprec=0.1 version='1.16.2',cubic,6.487344778319243,63.90834425814504,124.33619441659266,56.9982465845174,0.30117206531411883,True,False
1587,NbAs2,"[Element As, Element Nb]",Nb1 As2,crystal_system=<CrystalSystem.mono: 'Monoclinic'> symbol='C2/m' number=12 point_group='2/m' symprec=0.1 version='1.16.2',mono,7.328967328093465,110.00053430326915,124.47219562216947,89.74414322515054,0.2093531336063716,True,True
1588,SbPt,"[Element Pt, Element Sb]",Sb1 Pt1,crystal_system=<CrystalSystem.hex_: 'Hexagonal'> symbol='P6_3/mmc' number=194 point_group='6/mmm' symprec=0.1 version='1.16.2',hex_,12.569717795072107,83.71418493167407,124.48825313014973,30.09399764014189,0.38814269130878754,True,True
1589,Zr6CoAs2,"[Element As, Element Co, Element Zr]",Zr6 Co1 As2,crystal_system=<CrystalSystem.hex_: 'Hexagonal'> symbol='P-62m' number=189 point_group='-6m2' symprec=0.1 version='1.16.2',hex_,7.205382171306819,174.254109650204,124.49581105808576,67.1977752868992,0.27127287007811307,True,True
1590,ZrGaAu,"[Element Au, Element Ga, Element Zr]",Zr1 Ga1 Au1,crystal_system=<CrystalSystem.hex_: 'Hexagonal'> symbol='P-6m2' number=187 point_group='-6m2' symprec=0.1 version='1.16.2',hex_,10.694123193942538,111.15066714910861,124.52868010572692,61.847827496844644,0.28694413066442975,True,True
1591,ZrSiS,"[Element S, Element Si, Element Zr]",Zr1 Si1 S1,crystal_system=<CrystalSystem.tet: 'Tetragonal'> symbol='P4/nmm' number=129 point_group='4/mmm' symprec=0.1 version='1.16.2',tet,4.902397778520684,102.54707279705542,124.57925807372476,85.60174257184632,0.22046251375400827,True,True
1592,ZnAu3,"[Element Au, Element Zn]",Zn1 Au3,crystal_system=<CrystalSystem.ortho: 'Orthorhombic'> symbol='Cmce' number=64 point_group='mmm' symprec=0.1 version='1.16.2',ortho,16.351248639897275,266.6037980889219,124.62277221795208,29.081208092772968,0.3917437310129887,True,True
1593,Nd2WO6,"[Element Nd, Element O, Element W]",Nd2 W1 O6,crystal_system=<CrystalSystem.ortho: 'Orthorhombic'> symbol='P2_12_12_1' number=19 point_group='222' symprec=0.1 version='1.16.2',ortho,7.361503888669184,512.7855616558503,124.65380947837588,53.474989860310984,0.3123405462025357,False,True
1594,ZrSi2,"[Element Si, Element Zr]",Zr1 Si2,crystal_system=<CrystalSystem.ortho: 'Orthorhombic'> symbol='Cmcm' number=63 point_group='mmm' symprec=0.1 version='1.16.2',ortho,4.865620366734198,100.60594015713828,124.68049535927958,95.14832473461996,0.19581077036863026,True,True
1595,Sc2GaOs,"[Element Ga, Element Os, Element Sc]",Sc2 Ga1 Os1,crystal_system=<CrystalSystem.cubic: 'Cubic'> symbol='Fm-3m' number=225 point_group='m-3m' symprec=0.1 version='1.16.2',cubic,8.348485831003302,69.58917102352132,124.73777400196553,47.0062828016347,0.33260649932314984,True,False
1596,NiCO3,"[Element C, Element Ni, Element O]",Ni1 C1 O3,crystal_system=<CrystalSystem.trig: 'Trigonal'> symbol='R-3c' number=167 point_group='-3m' symprec=0.1 version='1.16.2',trig,4.432170194287513,88.94505301232424,124.80521841688406,68.3371531086127,0.2684809046321343,True,True
1597,LiFeO2,"[Element Fe, Element Li, Element O]",Li1 Fe1 O2,crystal_system=<CrystalSystem.ortho: 'Orthorhombic'> symbol='Pmmn' number=59 point_group='mmm' symprec=0.1 version='1.16.2',ortho,4.365992908017233,72.09991707995987,124.98166078405751,79.26489708018258,0.23823258585025758,False,False
1598,V4Zn5,"[Element V, Element Zn]",V4 Zn5,crystal_system=<CrystalSystem.tet: 'Tetragonal'> symbol='I4/mmm' number=139 point_group='4/mmm' symprec=0.1 version='1.16.2',tet,7.1858757074877335,122.66179354626934,125.04799253074941,55.657763395619966,0.3062063423838832,True,True
1599,Ti3SnH,"[Element H, Element Sn, Element Ti]",Ti3 Sn1 H1,crystal_system=<CrystalSystem.cubic: 'Cubic'> symbol='Pm-3m' number=221 point_group='m-3m' symprec=0.1 version='1.16.2',cubic,6.047748629076293,72.29986126465135,125.063252900117,25.42090541100107,0.4048169169408262,True,True
1600,LiC12,"[Element C, Element Li]",Li1 C12,crystal_system=<CrystalSystem.hex_: 'Hexagonal'> symbol='P6/mmm' number=191 point_group='6/mmm' symprec=0.1 version='1.16.2',hex_,2.2512048005590004,111.43217196655382,125.1349960237022,97.96858860869206,0.18956255660961713,True,True
1601,Fe2SiO4,"[Element Fe, Element O, Element Si]",Fe2 Si1 O4,crystal_system=<CrystalSystem.ortho: 'Orthorhombic'> symbol='Pnma' number=62 point_group='mmm' symprec=0.1 version='1.16.2',ortho,4.46734658718651,302.9746509865423,125.14351710282307,50.3745550440471,0.32254362045269985,False,True
1602,LiGe2N3,"[Element Ge, Element Li, Element N]",Li1 Ge2 N3,crystal_system=<CrystalSystem.ortho: 'Orthorhombic'> symbol='Cmc2_1' number=36 point_group='mm2' symprec=0.1 version='1.16.2',ortho,4.854158173740732,132.89428294043262,125.16193980544767,86.22954186896663,0.21986136124346164,False,True
1603,Sc2NiPt,"[Element Ni, Element Pt, Element Sc]",Sc2 Ni1 Pt1,crystal_system=<CrystalSystem.cubic: 'Cubic'> symbol='Fm-3m' number=225 point_group='m-3m' symprec=0.1 version='1.16.2',cubic,8.495956322892637,67.17423695830955,125.30871161274499,46.01005063506367,0.3364324314228247,True,False
1604,Sc2AlOs,"[Element Al, Element Os, Element Sc]",Sc2 Al1 Os1,crystal_system=<CrystalSystem.cubic: 'Cubic'> symbol='Fm-3m' number=225 point_group='m-3m' symprec=0.1 version='1.16.2',cubic,7.229827340724072,70.53976780194883,125.3281282578535,46.22143864206117,0.33578587949782773,True,False
1605,Zr3P,"[Element P, Element Zr]",Zr3 P1,crystal_system=<CrystalSystem.tet: 'Tetragonal'> symbol='P4_2/n' number=86 point_group='4/m' symprec=0.1 version='1.16.2',tet,6.412041774302294,631.157696199097,125.33916081328319,64.4157469945689,0.2806168698580431,True,True
1606,Ca3Fe2O7,"[Element Ca, Element Fe, Element O]",Ca3 Fe2 O7,crystal_system=<CrystalSystem.ortho: 'Orthorhombic'> symbol='Cmc2_1' number=36 point_group='mm2' symprec=0.1 version='1.16.2',ortho,4.208438157264073,271.4034244231492,125.37686919826155,59.00296977646971,0.2966039412555081,True,False
1607,Mn4Al11,"[Element Al, Element Mn]",Mn4 Al11,crystal_system=<CrystalSystem.tri: 'Triclinic'> symbol='P-1' number=2 point_group='-1' symprec=0.1 version='1.16.2',tri,4.031553320879202,212.75917735313277,125.41173209669867,84.90566603987531,0.22381866482983448,True,True
1608,Al5Co2,"[Element Al, Element Co]",Al5 Co2,crystal_system=<CrystalSystem.hex_: 'Hexagonal'> symbol='P6_3/mmc' number=194 point_group='6/mmm' symprec=0.1 version='1.16.2',hex_,4.461407961468099,376.3307399553464,125.42675367200769,83.70532848664809,0.22703929080534166,True,True
1609,Sc2CuIr,"[Element Cu, Element Ir, Element Sc]",Sc2 Cu1 Ir1,crystal_system=<CrystalSystem.cubic: 'Cubic'> symbol='Fm-3m' number=225 point_group='m-3m' symprec=0.1 version='1.16.2',cubic,8.535682065731493,67.24788308324695,125.46671185301254,43.24398214247873,0.3454262302805449,True,False
1610,Nd2O3,"[Element Nd, Element O]",Nd2 O3,crystal_system=<CrystalSystem.cubic: 'Cubic'> symbol='Ia-3' number=206 point_group='m-3' symprec=0.1 version='1.16.2',cubic,6.487107728262267,689.0489404160857,125.7291886624854,50.3247601091702,0.32342698547902526,False,True
1611,LiTi2N3,"[Element Li, Element N, Element Ti]",Li1 Ti2 N3,crystal_system=<CrystalSystem.ortho: 'Orthorhombic'> symbol='Cmcm' number=63 point_group='mmm' symprec=0.1 version='1.16.2',ortho,3.5882680730333907,133.92080045595733,125.74220732320126,71.39546153587449,0.26128417159717465,False,False
1612,Ti2Cu,"[Element Cu, Element Ti]",Ti2 Cu1,crystal_system=<CrystalSystem.tet: 'Tetragonal'> symbol='I4/mmm' number=139 point_group='4/mmm' symprec=0.1 version='1.16.2',tet,5.792678466692911,45.65947584503994,125.75499580721655,55.19409754222983,0.3085572735273679,True,True
1613,Zr3As2,"[Element As, Element Zr]",Zr3 As2,crystal_system=<CrystalSystem.ortho: 'Orthorhombic'> symbol='Pnma' number=62 point_group='mmm' symprec=0.1 version='1.16.2',ortho,6.955862867150542,404.4148358473911,125.9355104252566,61.36241656805843,0.29041408709793604,True,True
1614,Sc2CuOs,"[Element Cu, Element Os, Element Sc]",Sc2 Cu1 Os1,crystal_system=<CrystalSystem.cubic: 'Cubic'> symbol='Fm-3m' number=225 point_group='m-3m' symprec=0.1 version='1.16.2',cubic,8.57343188934963,66.5669321028499,126.08129629633649,51.902796749551015,0.31900547482133784,True,False
1615,Sc2PdPt,"[Element Pd, Element Pt, Element Sc]",Sc2 Pd1 Pt1,crystal_system=<CrystalSystem.cubic: 'Cubic'> symbol='Fm-3m' number=225 point_group='m-3m' symprec=0.1 version='1.16.2',cubic,9.120883167963209,71.26078199536605,126.1283846347977,41.19558277552723,0.3527259028804502,True,False
1616,Zr2Si,"[Element Si, Element Zr]",Zr2 Si1,crystal_system=<CrystalSystem.tet: 'Tetragonal'> symbol='I4/mcm' number=140 point_group='4/mmm' symprec=0.1 version='1.16.2',tet,6.004979142031671,116.43640829025453,126.20285316313905,87.06338841393281,0.21955561590322775,True,True
1617,Zr2Rh,"[Element Rh, Element Zr]",Zr2 Rh1,crystal_system=<CrystalSystem.tet: 'Tetragonal'> symbol='I4/mcm' number=140 point_group='4/mmm' symprec=0.1 version='1.16.2',tet,7.930736188055157,119.49474129645519,126.22282110062281,8.830875143227285,0.46581590882711205,True,True
1618,CdO,"[Element Cd, Element O]",Cd1 O1,crystal_system=<CrystalSystem.cubic: 'Cubic'> symbol='Fm-3m' number=225 point_group='m-3m' symprec=0.1 version='1.16.2',cubic,8.100938388867615,26.32170194637648,126.23624016249624,45.11611378457677,0.34032514094390437,True,True
1619,YPd3,"[Element Pd, Element Y]",Y1 Pd3,crystal_system=<CrystalSystem.cubic: 'Cubic'> symbol='Pm-3m' number=221 point_group='m-3m' symprec=0.1 version='1.16.2',cubic,9.834653340340134,68.91705443209393,126.2604056199215,55.501938365380624,0.3082980964230349,True,True
1620,Hf6NiSb2,"[Element Hf, Element Ni, Element Sb]",Hf6 Ni1 Sb2,crystal_system=<CrystalSystem.hex_: 'Hexagonal'> symbol='P-62m' number=189 point_group='-6m2' symprec=0.1 version='1.16.2',hex_,12.424690443411222,183.51965189955993,126.26698011380927,70.63932795294303,0.26424232672446174,True,True
1621,YSiPd2,"[Element Pd, Element Si, Element Y]",Y1 Si1 Pd2,crystal_system=<CrystalSystem.ortho: 'Orthorhombic'> symbol='Pnma' number=62 point_group='mmm' symprec=0.1 version='1.16.2',ortho,7.808883925304722,280.55115035817124,126.32832168276443,49.984064422539724,0.3252179260439885,True,True
1622,Lu4C7,"[Element C, Element Lu]",Lu4 C7,crystal_system=<CrystalSystem.mono: 'Monoclinic'> symbol='P2_1/c' number=14 point_group='2/m' symprec=0.1 version='1.16.2',mono,8.946030269233868,291.0269185899322,126.4002349078632,75.41041152358542,0.2511815852213424,True,True
1623,Sc(Al2Fe)4,"[Element Al, Element Fe, Element Sc]",Sc1 Al8 Fe4,crystal_system=<CrystalSystem.tet: 'Tetragonal'> symbol='I4/mmm' number=139 point_group='4/mmm' symprec=0.1 version='1.16.2',tet,4.373332075506819,183.84459317161978,126.4292235537742,85.38755813522158,0.22436375071133355,True,True
1624,ZrBe5,"[Element Be, Element Zr]",Zr1 Be5,crystal_system=<CrystalSystem.hex_: 'Hexagonal'> symbol='P6/mmm' number=191 point_group='6/mmm' symprec=0.1 version='1.16.2',hex_,3.617827837711492,62.55311954982862,126.43655455043171,111.03481942298424,0.1603362842174644,True,True
1625,CoSn,"[Element Co, Element Sn]",Co1 Sn1,crystal_system=<CrystalSystem.hex_: 'Hexagonal'> symbol='P6/mmm' number=191 point_group='6/mmm' symprec=0.1 version='1.16.2',hex_,8.866618260115631,99.806980483209,126.5419200386398,72.33692274054877,0.2599240197773547,True,True
1626,ZrP2,"[Element P, Element Zr]",Zr1 P2,crystal_system=<CrystalSystem.ortho: 'Orthorhombic'> symbol='Pnma' number=62 point_group='mmm' symprec=0.1 version='1.16.2',ortho,5.031603907772961,202.1997789609287,126.62017015879124,80.46513171887989,0.23779931745117908,True,True
1627,Sc3(NiGe)4,"[Element Ge, Element Ni, Element Sc]",Sc3 Ni4 Ge4,crystal_system=<CrystalSystem.ortho: 'Orthorhombic'> symbol='Immm' number=71 point_group='mmm' symprec=0.1 version='1.16.2',ortho,6.66761324020915,164.42017116984493,126.6496306181759,74.57469962435651,0.2538916537366762,True,True
1628,AlAu4,"[Element Al, Element Au]",Al1 Au4,crystal_system=<CrystalSystem.cubic: 'Cubic'> symbol='P2_13' number=198 point_group='23' symprec=0.1 version='1.16.2',cubic,15.9273314880959,339.8150231225442,126.65495776371013,15.744755461335437,0.4403170115762416,True,True
1629,DyAsO4,"[Element As, Element Dy, Element O]",Dy1 As1 O4,crystal_system=<CrystalSystem.tet: 'Tetragonal'> symbol='I4_1/amd' number=141 point_group='4/mmm' symprec=0.1 version='1.16.2',tet,6.369751344581069,157.15475532624174,126.7458567306533,54.75824061087825,0.3111766622195216,False,True
1630,Sr2MgWO6,"[Element Mg, Element O, Element Sr, Element W]",Sr2 Mg1 W1 O6,crystal_system=<CrystalSystem.tet: 'Tetragonal'> symbol='I4/m' number=87 point_group='4/m' symprec=0.1 version='1.16.2',tet,6.167197509958649,129.07508495000974,126.76971325496527,71.65627551180427,0.2621844290853476,False,True
1631,MgNi2,"[Element Mg, Element Ni]",Mg1 Ni2,crystal_system=<CrystalSystem.hex_: 'Hexagonal'> symbol='P6_3/mmc' number=194 point_group='6/mmm' symprec=0.1 version='1.16.2',hex_,6.149017388671714,306.11039708599577,126.85727513514128,61.12420728870961,0.2924221542724258,True,True
1632,LiAl2Pt,"[Element Al, Element Li, Element Pt]",Li1 Al2 Pt1,crystal_system=<CrystalSystem.cubic: 'Cubic'> symbol='Fm-3m' number=225 point_group='m-3m' symprec=0.1 version='1.16.2',cubic,7.727711909378693,55.00699401831001,126.87552990906659,53.82312786920716,0.3141679266119094,True,True
1633,Ti2InC,"[Element C, Element In, Element Ti]",Ti2 In1 C1,crystal_system=<CrystalSystem.hex_: 'Hexagonal'> symbol='P6_3/mmc' number=194 point_group='6/mmm' symprec=0.1 version='1.16.2',hex_,6.143337485163951,120.31702930548434,126.88832796879709,96.13566121133286,0.19756019985796192,True,True
1634,NbAl3,"[Element Al, Element Nb]",Nb1 Al3,crystal_system=<CrystalSystem.tet: 'Tetragonal'> symbol='I4/mmm' number=139 point_group='4/mmm' symprec=0.1 version='1.16.2',tet,4.575352086627719,63.095990172417515,126.8957257601125,104.94591605187844,0.17584813259394325,True,True
1635,Ni3S2,"[Element Ni, Element S]",Ni3 S2,crystal_system=<CrystalSystem.trig: 'Trigonal'> symbol='R32' number=155 point_group='32' symprec=0.1 version='1.16.2',trig,6.090749723979863,65.48921551075672,126.92750586374514,55.752234805327106,0.3084268165389501,True,True
1636,Mg2SiNi3,"[Element Mg, Element Ni, Element Si]",Mg2 Si1 Ni3,crystal_system=<CrystalSystem.trig: 'Trigonal'> symbol='R-3m' number=166 point_group='-3m' symprec=0.1 version='1.16.2',trig,5.414811902697958,77.51772960534824,126.9595944855101,73.73182242811355,0.25671985604701403,True,True
1637,Sr2TiO4,"[Element O, Element Sr, Element Ti]",Sr2 Ti1 O4,crystal_system=<CrystalSystem.tet: 'Tetragonal'> symbol='I4/mmm' number=139 point_group='4/mmm' symprec=0.1 version='1.16.2',tet,4.9871465095478476,95.59542788402864,126.98188193537803,75.07932378897165,0.2530420630619211,False,True
1638,Zn2ReN3,"[Element N, Element Re, Element Zn]",Zn2 Re1 N3,crystal_system=<CrystalSystem.ortho: 'Orthorhombic'> symbol='Cmc2_1' number=36 point_group='mm2' symprec=0.1 version='1.16.2',ortho,8.00416449815722,148.97455327375326,127.1015571429484,46.601381712036414,0.336641543032717,True,False
1639,YPPt,"[Element P, Element Pt, Element Y]",Y1 P1 Pt1,crystal_system=<CrystalSystem.hex_: 'Hexagonal'> symbol='P-6m2' number=187 point_group='-6m2' symprec=0.1 version='1.16.2',hex_,9.16103887615209,57.09061923587471,127.2320774977851,49.22491157783959,0.328652252546326,True,True
1640,SnPt,"[Element Pt, Element Sn]",Sn1 Pt1,crystal_system=<CrystalSystem.hex_: 'Hexagonal'> symbol='P6_3/mmc' number=194 point_group='6/mmm' symprec=0.1 version='1.16.2',hex_,12.797017905723244,81.4357219320045,127.2970273851258,43.209147316093095,0.34753308401003946,True,True
1641,Zr2SnC,"[Element C, Element Sn, Element Zr]",Zr2 Sn1 C1,crystal_system=<CrystalSystem.hex_: 'Hexagonal'> symbol='P6_3/mmc' number=194 point_group='6/mmm' symprec=0.1 version='1.16.2',hex_,7.185279665032626,144.74839812208592,127.33914860764668,79.85734377217929,0.24065262197299472,True,True
1642,MnInPd2,"[Element In, Element Mn, Element Pd]",Mn1 In1 Pd2,crystal_system=<CrystalSystem.cubic: 'Cubic'> symbol='Fm-3m' number=225 point_group='m-3m' symprec=0.1 version='1.16.2',cubic,9.775970851938089,64.9874768523067,127.35737152457679,28.30323773257991,0.3965462804715891,True,True
1643,HfGeS,"[Element Ge, Element Hf, Element S]",Hf1 Ge1 S1,crystal_system=<CrystalSystem.tet: 'Tetragonal'> symbol='P4/nmm' number=129 point_group='4/mmm' symprec=0.1 version='1.16.2',tet,9.081563954795776,103.56285840336011,127.36093733853221,81.89921729831251,0.23522934470301474,True,True
1644,MnWO4,"[Element Mn, Element O, Element W]",Mn1 W1 O4,crystal_system=<CrystalSystem.mono: 'Monoclinic'> symbol='P2/c' number=13 point_group='2/m' symprec=0.1 version='1.16.2',mono,7.310800981675956,137.541915912545,127.36968888986809,54.63354090452982,0.3123601637770498,False,True
1645,HfAs,"[Element As, Element Hf]",Hf1 As1,crystal_system=<CrystalSystem.hex_: 'Hexagonal'> symbol='P6_3/mmc' number=194 point_group='6/mmm' symprec=0.1 version='1.16.2',hex_,10.687731884259652,157.48892890898404,127.39461202774905,66.08986842716553,0.2788520681822738,True,True
1646,Mn3O4,"[Element Mn, Element O]",Mn3 O4,crystal_system=<CrystalSystem.tet: 'Tetragonal'> symbol='I4_1/amd' number=141 point_group='4/mmm' symprec=0.1 version='1.16.2',tet,4.886374081713801,155.5144237875321,127.39631761486123,47.48482542379192,0.33422949749751985,False,True
1647,HfMgPd2,"[Element Hf, Element Mg, Element Pd]",Hf1 Mg1 Pd2,crystal_system=<CrystalSystem.cubic: 'Cubic'> symbol='Fm-3m' number=225 point_group='m-3m' symprec=0.1 version='1.16.2',cubic,10.204484394855275,67.63478959252987,127.49693038124194,37.78144704965823,0.36515366606630295,True,False
1648,Mn2BiO5,"[Element Bi, Element Mn, Element O]",Mn2 Bi1 O5,crystal_system=<CrystalSystem.ortho: 'Orthorhombic'> symbol='Pbam' number=55 point_group='mmm' symprec=0.1 version='1.16.2',ortho,7.1580464399388335,370.1075747703095,127.56462276962499,63.12853949700202,0.2875997087909165,False,True