,Formula,Elements,Composition,Symmetry,Crystal system,Density [g/m$^3$],Volume [$\mathring{A}^3$],Bulk modulus[GPa],Shear modulus [GPa],Poisson,Metal,Experimental report
1029,Sc2ZnAu,"[Element Au, Element Sc, Element Zn]",Sc2 Zn1 Au1,crystal_system=<CrystalSystem.cubic: 'Cubic'> symbol='Fm-3m' number=225 point_group='m-3m' symprec=0.1 version='1.16.2',cubic,7.696242704585019,76.00942449471646,90.3559383165246,42.22155199177523,0.29784718324155796,True,False
1030,NiSbSe,"[Element Ni, Element Sb, Element Se]",Ni1 Sb1 Se1,crystal_system=<CrystalSystem.cubic: 'Cubic'> symbol='P2_13' number=198 point_group='23' symprec=0.1 version='1.16.2',cubic,7.591153528966875,226.98320272711328,90.39091076932436,47.069088589913996,0.2781447055397371,True,True
1031,LiCdPd2,"[Element Cd, Element Li, Element Pd]",Li1 Cd1 Pd2,crystal_system=<CrystalSystem.cubic: 'Cubic'> symbol='Fm-3m' number=225 point_group='m-3m' symprec=0.1 version='1.16.2',cubic,8.89464927729337,62.01681217720186,90.44190448609591,20.59597343987512,0.3941703835433437,True,False
1032,YCuSi,"[Element Cu, Element Si, Element Y]",Y1 Cu1 Si1,crystal_system=<CrystalSystem.hex_: 'Hexagonal'> symbol='P6_3/mmc' number=194 point_group='6/mmm' symprec=0.1 version='1.16.2',hex_,5.378919448929915,111.46823279351311,90.47672406571186,59.11421314825629,0.2317415643598661,True,True
1033,LiCu3,"[Element Cu, Element Li]",Li1 Cu3,crystal_system=<CrystalSystem.tet: 'Tetragonal'> symbol='I4/mmm' number=139 point_group='4/mmm' symprec=0.1 version='1.16.2',tet,7.085672707099158,46.30296399536622,90.48338768325786,35.889209015610916,0.32483918945482987,True,False
1034,YNiSn,"[Element Ni, Element Sn, Element Y]",Y1 Ni1 Sn1,crystal_system=<CrystalSystem.ortho: 'Orthorhombic'> symbol='Pnma' number=62 point_group='mmm' symprec=0.1 version='1.16.2',ortho,7.2779979786702915,243.04316363810813,90.50809230825423,42.12951236523993,0.2985222219348646,True,True
1035,SmS,"[Element S, Element Sm]",Sm1 S1,crystal_system=<CrystalSystem.cubic: 'Cubic'> symbol='Fm-3m' number=225 point_group='m-3m' symprec=0.1 version='1.16.2',cubic,6.675494713050937,45.37848537761152,90.53671548546956,40.27398011738401,0.3063031586771615,True,True
1036,Li(CuP)2,"[Element Cu, Element Li, Element P]",Li1 Cu2 P2,crystal_system=<CrystalSystem.tet: 'Tetragonal'> symbol='I4/mmm' number=139 point_group='4/mmm' symprec=0.1 version='1.16.2',tet,4.63719684957399,70.17888758046486,90.64732950968877,35.77169707424301,0.32562509201967244,True,True
1037,Mg2AgPt,"[Element Ag, Element Mg, Element Pt]",Mg2 Ag1 Pt1,crystal_system=<CrystalSystem.cubic: 'Cubic'> symbol='Fm-3m' number=225 point_group='m-3m' symprec=0.1 version='1.16.2',cubic,8.840751150824785,66.03316363965061,90.66951146842348,32.19286338287413,0.34125879951432253,True,False
1038,Sc2Pt,"[Element Pt, Element Sc]",Sc2 Pt1,crystal_system=<CrystalSystem.ortho: 'Orthorhombic'> symbol='Pnma' number=62 point_group='mmm' symprec=0.1 version='1.16.2',ortho,7.7304005356003795,244.87564254423367,90.73799965667294,27.679860988570073,0.3615517120337562,True,True
1039,LiPd2Pb,"[Element Li, Element Pb, Element Pd]",Li1 Pd2 Pb1,crystal_system=<CrystalSystem.cubic: 'Cubic'> symbol='Fm-3m' number=225 point_group='m-3m' symprec=0.1 version='1.16.2',cubic,10.6245278604371,66.73413073122339,90.75807897142278,13.762792970076221,0.427826864013161,True,True
1040,LiSc2Pt,"[Element Li, Element Pt, Element Sc]",Li1 Sc2 Pt1,crystal_system=<CrystalSystem.cubic: 'Cubic'> symbol='Fm-3m' number=225 point_group='m-3m' symprec=0.1 version='1.16.2',cubic,6.780166425911478,71.49861386565583,90.82495351212012,36.2949304788863,0.32367965616286226,True,False
1041,LiFePO4,"[Element Fe, Element Li, Element O, Element P]",Li1 Fe1 P1 O4,crystal_system=<CrystalSystem.ortho: 'Orthorhombic'> symbol='Pnma' number=62 point_group='mmm' symprec=0.1 version='1.16.2',ortho,3.6831458029777546,284.49838986332463,90.8627654557033,48.05243268066209,0.27520432530499206,False,True
1042,CdCO3,"[Element C, Element Cd, Element O]",Cd1 C1 O3,crystal_system=<CrystalSystem.trig: 'Trigonal'> symbol='R-3c' number=167 point_group='-3m' symprec=0.1 version='1.16.2',trig,4.956502910786648,115.52902720431366,90.9085366021375,32.38814701215475,0.34077341833157315,False,True
1043,Li2PdO2,"[Element Li, Element O, Element Pd]",Li2 Pd1 O2,crystal_system=<CrystalSystem.ortho: 'Orthorhombic'> symbol='Immm' number=71 point_group='mmm' symprec=0.1 version='1.16.2',ortho,4.927262391172839,51.326965807119315,90.94025147931856,43.57462939404382,0.29341688459724247,False,True
1044,CaCu5,"[Element Ca, Element Cu]",Ca1 Cu5,crystal_system=<CrystalSystem.hex_: 'Hexagonal'> symbol='P6/mmm' number=191 point_group='6/mmm' symprec=0.1 version='1.16.2',hex_,6.7080430315084385,88.57339756933628,91.09044691683013,37.43957584144403,0.3192552602330295,True,True
1045,YAl2Ni,"[Element Al, Element Ni, Element Y]",Y1 Al2 Ni1,crystal_system=<CrystalSystem.ortho: 'Orthorhombic'> symbol='Cmcm' number=63 point_group='mmm' symprec=0.1 version='1.16.2',ortho,4.725425780458197,141.66008915199072,91.14958371313384,57.19700568928698,0.24052136837678476,True,True
1046,Be3P2,"[Element Be, Element P]",Be3 P2,crystal_system=<CrystalSystem.cubic: 'Cubic'> symbol='Ia-3' number=206 point_group='m-3' symprec=0.1 version='1.16.2',cubic,2.2314960033755202,529.7308149028433,91.18369482136853,72.03162922981281,0.1873470820059116,False,True
1047,LiZnAu2,"[Element Au, Element Li, Element Zn]",Li1 Zn1 Au2,crystal_system=<CrystalSystem.cubic: 'Cubic'> symbol='Fm-3m' number=225 point_group='m-3m' symprec=0.1 version='1.16.2',cubic,12.85534004018492,60.230329522633234,91.39269945589658,13.009808410492667,0.43204897506073703,True,False
1048,Ti2Cd,"[Element Cd, Element Ti]",Ti2 Cd1,crystal_system=<CrystalSystem.tet: 'Tetragonal'> symbol='I4/mmm' number=139 point_group='4/mmm' symprec=0.1 version='1.16.2',tet,6.3256836430393735,54.63961265242577,91.40699818101167,32.89033537497401,0.33935629116766114,True,True
1049,CeSi2,"[Element Ce, Element Si]",Ce1 Si2,crystal_system=<CrystalSystem.tet: 'Tetragonal'> symbol='I4_1/amd' number=141 point_group='4/mmm' symprec=0.1 version='1.16.2',tet,5.3358583831754345,122.17049567636461,91.60598272606832,47.44986653986902,0.279143940042326,True,True
1050,Al12W,"[Element Al, Element W]",Al12 W1,crystal_system=<CrystalSystem.cubic: 'Cubic'> symbol='Im-3' number=204 point_group='m-3' symprec=0.1 version='1.16.2',cubic,3.947027887606527,213.55822990706062,91.67506553855011,56.73757362176009,0.2434722396013942,True,True
1051,SbO2,"[Element O, Element Sb]",Sb1 O2,crystal_system=<CrystalSystem.ortho: 'Orthorhombic'> symbol='Pna2_1' number=33 point_group='mm2' symprec=0.1 version='1.16.2',ortho,6.561858477656823,311.28070817486974,91.85498907033667,54.6423076337543,0.25178178164256443,False,True
1052,Sr(FeP)2,"[Element Fe, Element P, Element Sr]",Sr1 Fe2 P2,crystal_system=<CrystalSystem.tet: 'Tetragonal'> symbol='I4/mmm' number=139 point_group='4/mmm' symprec=0.1 version='1.16.2',tet,5.326426022250456,81.44829633095912,91.861379075994,57.16500815876104,0.2423058378152102,True,True
1053,YMgCu4,"[Element Cu, Element Mg, Element Y]",Y1 Mg1 Cu4,crystal_system=<CrystalSystem.cubic: 'Cubic'> symbol='F-43m' number=216 point_group='-43m' symprec=0.1 version='1.16.2',cubic,6.628581398413487,92.0368121961457,92.04632059341917,42.59837409579353,0.29952909825242924,True,True
1054,YAlNi,"[Element Al, Element Ni, Element Y]",Y1 Al1 Ni1,crystal_system=<CrystalSystem.hex_: 'Hexagonal'> symbol='P-62m' number=189 point_group='-6m2' symprec=0.1 version='1.16.2',hex_,5.366079028579185,162.07265204491088,92.06920521064251,26.090363311333398,0.37053983918845335,True,True
1055,LaC2,"[Element C, Element La]",La1 C2,crystal_system=<CrystalSystem.tet: 'Tetragonal'> symbol='I4/mmm' number=139 point_group='4/mmm' symprec=0.1 version='1.16.2',tet,5.27751940507633,51.263938958448335,92.14519875853433,34.23737582800589,0.3346941370719508,True,True
1056,Cu2Sb,"[Element Cu, Element Sb]",Cu2 Sb1,crystal_system=<CrystalSystem.tet: 'Tetragonal'> symbol='P4/nmm' number=129 point_group='4/mmm' symprec=0.1 version='1.16.2',tet,8.531823838866934,96.8675574193341,92.1522363417006,34.54136042378467,0.33340076442438343,True,True
1057,RbAlO2,"[Element Al, Element O, Element Rb]",Rb1 Al1 O2,crystal_system=<CrystalSystem.cubic: 'Cubic'> symbol='Fd-3m' number=227 point_group='m-3m' symprec=0.1 version='1.16.2',cubic,3.717626286838534,129.0402847064704,92.20431556598366,42.82500501385965,0.2989045848292221,False,True
1058,CaSiO3,"[Element Ca, Element O, Element Si]",Ca1 Si1 O3,crystal_system=<CrystalSystem.mono: 'Monoclinic'> symbol='P2_1/c' number=14 point_group='2/m' symprec=0.1 version='1.16.2',mono,2.90304391106308,797.3329242079571,92.21365767047047,46.8180124997892,0.2828874080010617,False,True
1059,SrCrN2,"[Element Cr, Element N, Element Sr]",Sr1 Cr1 N2,crystal_system=<CrystalSystem.mono: 'Monoclinic'> symbol='P2_1/c' number=14 point_group='2/m' symprec=0.1 version='1.16.2',mono,4.748484358716057,234.479309553745,92.24994452412712,31.72803555533399,0.34571971575277893,False,False
1060,Sr2PbO4,"[Element O, Element Pb, Element Sr]",Sr2 Pb1 O4,crystal_system=<CrystalSystem.ortho: 'Orthorhombic'> symbol='Pbam' number=55 point_group='mmm' symprec=0.1 version='1.16.2',ortho,6.725802950749754,220.4426983744759,92.260312007237,44.450886066047346,0.2924354795682244,False,True
1061,SrMnN2,"[Element Mn, Element N, Element Sr]",Sr1 Mn1 N2,crystal_system=<CrystalSystem.mono: 'Monoclinic'> symbol='P2_1/c' number=14 point_group='2/m' symprec=0.1 version='1.16.2',mono,4.853650447713523,233.42476028725412,92.26191695763241,28.510503408745542,0.35992047228438667,True,False
1062,ScAg4,"[Element Ag, Element Sc]",Sc1 Ag4,crystal_system=<CrystalSystem.tet: 'Tetragonal'> symbol='I4/m' number=87 point_group='4/m' symprec=0.1 version='1.16.2',tet,8.892463508788001,88.96617770138559,92.30350859821505,36.99441480756345,0.32322157113905986,True,True
1063,YAl4Ni,"[Element Al, Element Ni, Element Y]",Y1 Al4 Ni1,crystal_system=<CrystalSystem.ortho: 'Orthorhombic'> symbol='Cmcm' number=63 point_group='mmm' symprec=0.1 version='1.16.2',ortho,4.160726787175517,203.9595187181245,92.43568196403356,59.08919092630203,0.236519685155395,True,True
1064,Y2CuRu,"[Element Cu, Element Ru, Element Y]",Y2 Cu1 Ru1,crystal_system=<CrystalSystem.cubic: 'Cubic'> symbol='Fm-3m' number=225 point_group='m-3m' symprec=0.1 version='1.16.2',cubic,7.09276266639821,80.16827857920333,92.57013715293378,36.8530876862443,0.3242655880939418,True,False
1065,As2O5,"[Element As, Element O]",As2 O5,crystal_system=<CrystalSystem.tet: 'Tetragonal'> symbol='P4_12_12' number=92 point_group='422' symprec=0.1 version='1.16.2',tet,4.435299509223556,344.2009996226572,92.66745508112257,46.89207204685103,0.28350473262352116,False,True
1066,Li3ScN2,"[Element Li, Element N, Element Sc]",Li3 Sc1 N2,crystal_system=<CrystalSystem.cubic: 'Cubic'> symbol='Ia-3' number=206 point_group='m-3' symprec=0.1 version='1.16.2',cubic,2.504720864974737,497.4472018838932,92.73920701803857,61.28720533073238,0.22922090983210425,False,True
1067,Ca(Al2Cu)4,"[Element Al, Element Ca, Element Cu]",Ca1 Al8 Cu4,crystal_system=<CrystalSystem.tet: 'Tetragonal'> symbol='I4/mmm' number=139 point_group='4/mmm' symprec=0.1 version='1.16.2',tet,4.324089826005668,195.89434361416195,92.8605099316791,62.897600399123576,0.22371254271076207,True,True
1068,YAl3Ni,"[Element Al, Element Ni, Element Y]",Y1 Al3 Ni1,crystal_system=<CrystalSystem.ortho: 'Orthorhombic'> symbol='Pnma' number=62 point_group='mmm' symprec=0.1 version='1.16.2',ortho,4.381682751804282,346.44773625969634,92.86125120305766,59.7170056432964,0.23521930999245683,True,True
1069,CeAlPd,"[Element Al, Element Ce, Element Pd]",Ce1 Al1 Pd1,crystal_system=<CrystalSystem.hex_: 'Hexagonal'> symbol='P-62m' number=189 point_group='-6m2' symprec=0.1 version='1.16.2',hex_,7.231388585184887,188.42296450895032,92.86336078439312,39.71863531634406,0.31282965351777925,True,True
1070,CsAlO2,"[Element Al, Element Cs, Element O]",Cs1 Al1 O2,crystal_system=<CrystalSystem.cubic: 'Cubic'> symbol='Fd-3m' number=227 point_group='m-3m' symprec=0.1 version='1.16.2',cubic,4.754254032205877,134.04157594112974,92.88616797417735,47.689338770426474,0.28080440929115674,False,True
1071,Ca(CuSi)2,"[Element Ca, Element Cu, Element Si]",Ca1 Cu2 Si2,crystal_system=<CrystalSystem.tet: 'Tetragonal'> symbol='I4/mmm' number=139 point_group='4/mmm' symprec=0.1 version='1.16.2',tet,4.622028412165114,80.23889569726471,92.90787101801226,53.6535181850571,0.2578645769714748,True,True
1072,Ca(SiAu)2,"[Element Au, Element Ca, Element Si]",Ca1 Si2 Au2,crystal_system=<CrystalSystem.tet: 'Tetragonal'> symbol='I4/mmm' number=139 point_group='4/mmm' symprec=0.1 version='1.16.2',tet,8.62627572611423,94.35898129645916,92.93028652602791,34.72818962163969,0.3338465092777352,True,True
1073,VF2,"[Element F, Element V]",V1 F2,crystal_system=<CrystalSystem.tet: 'Tetragonal'> symbol='P4_2/mnm' number=136 point_group='4/mmm' symprec=0.1 version='1.16.2',tet,3.970077635911695,74.3993170100947,92.98001158699611,34.58232825166839,0.334546116968988,True,True
1074,YSiAu,"[Element Au, Element Si, Element Y]",Y1 Si1 Au1,crystal_system=<CrystalSystem.hex_: 'Hexagonal'> symbol='P6_3mc' number=186 point_group='6mm' symprec=0.1 version='1.16.2',hex_,8.411295776301811,123.9617304236935,92.9898212808412,43.977985630252576,0.2957346356099966,True,True
1075,Na2Pd3O4,"[Element Na, Element O, Element Pd]",Na2 Pd3 O4,crystal_system=<CrystalSystem.ortho: 'Orthorhombic'> symbol='Immm' number=71 point_group='mmm' symprec=0.1 version='1.16.2',ortho,6.507818827884617,109.52441305840149,93.01085451533221,34.975258981111885,0.33292489961093674,False,True
1076,YGa2Ni,"[Element Ga, Element Ni, Element Y]",Y1 Ga2 Ni1,crystal_system=<CrystalSystem.ortho: 'Orthorhombic'> symbol='Cmcm' number=63 point_group='mmm' symprec=0.1 version='1.16.2',ortho,6.971214210171335,136.74801466049018,93.03979529971315,49.24123835555369,0.2750587248365092,True,True
1077,ZrTe,"[Element Te, Element Zr]",Zr1 Te1,crystal_system=<CrystalSystem.hex_: 'Hexagonal'> symbol='P-6m2' number=187 point_group='-6m2' symprec=0.1 version='1.16.2',hex_,7.483785621518009,48.55374259584595,93.06590970990709,56.06482715211904,0.24916005634258265,True,True
1078,Ca3AlN3,"[Element Al, Element Ca, Element N]",Ca3 Al1 N3,crystal_system=<CrystalSystem.mono: 'Monoclinic'> symbol='P2_1/c' number=14 point_group='2/m' symprec=0.1 version='1.16.2',mono,3.0694056891016728,409.503601044365,93.18324824201864,40.83583772800777,0.3088123812475422,False,True
1079,Sn2Pt,"[Element Pt, Element Sn]",Sn2 Pt1,crystal_system=<CrystalSystem.cubic: 'Cubic'> symbol='Fm-3m' number=225 point_group='m-3m' symprec=0.1 version='1.16.2',cubic,10.527608700329575,68.21965072070763,93.27129080771688,23.800093618053186,0.38241601368813555,True,True
1080,LiAlO2,"[Element Al, Element Li, Element O]",Li1 Al1 O2,crystal_system=<CrystalSystem.tet: 'Tetragonal'> symbol='P4_12_12' number=92 point_group='422' symprec=0.1 version='1.16.2',tet,2.6429246007715683,165.67246456582174,93.42796312697382,52.47545749376041,0.26345311715531095,False,True
1081,LiAlAu2,"[Element Al, Element Au, Element Li]",Li1 Al1 Au2,crystal_system=<CrystalSystem.cubic: 'Cubic'> symbol='Fm-3m' number=225 point_group='m-3m' symprec=0.1 version='1.16.2',cubic,11.723711600574843,60.60120634714685,93.52984526996204,32.722232952107156,0.3433402306523417,True,False
1082,AsPdSe,"[Element As, Element Pd, Element Se]",As1 Pd1 Se1,crystal_system=<CrystalSystem.cubic: 'Cubic'> symbol='P2_13' number=198 point_group='23' symprec=0.1 version='1.16.2',cubic,7.463736844376878,231.64856152404863,93.70645422217021,35.08079508087205,0.3335826490531103,True,True
1083,AlAg2,"[Element Ag, Element Al]",Al1 Ag2,crystal_system=<CrystalSystem.ortho: 'Orthorhombic'> symbol='Cmcm' number=63 point_group='mmm' symprec=0.1 version='1.16.2',ortho,8.170901523456344,98.65315792948888,93.73928708663959,29.6487790054736,0.35693811188539604,True,False
1084,MgCuP,"[Element Cu, Element Mg, Element P]",Mg1 Cu1 P1,crystal_system=<CrystalSystem.ortho: 'Orthorhombic'> symbol='Pnma' number=62 point_group='mmm' symprec=0.1 version='1.16.2',ortho,4.494496723238884,175.6042302669712,93.89216713822952,48.11276202102695,0.28116588066061143,True,True
1085,YNiSb,"[Element Ni, Element Sb, Element Y]",Y1 Ni1 Sb1,crystal_system=<CrystalSystem.cubic: 'Cubic'> symbol='F-43m' number=216 point_group='-43m' symprec=0.1 version='1.16.2',cubic,7.046821290786001,63.47281123191167,93.99898738655162,55.15911000404283,0.2545983245234493,False,True
1086,Zr,[Element Zr],Zr1,crystal_system=<CrystalSystem.hex_: 'Hexagonal'> symbol='P6_3/mmc' number=194 point_group='6/mmm' symprec=0.1 version='1.16.2',hex_,6.446094089810128,46.99931887465835,94.12933871706772,34.00573256497603,0.33878126842126305,True,True
1087,MgCu2,"[Element Cu, Element Mg]",Mg1 Cu2,crystal_system=<CrystalSystem.cubic: 'Cubic'> symbol='Fd-3m' number=227 point_group='m-3m' symprec=0.1 version='1.16.2',cubic,5.959245547723972,84.37330902132675,94.14784068165767,37.548557863661784,0.323986778636602,True,True
1088,Sr3(SnIr)4,"[Element Ir, Element Sn, Element Sr]",Sr3 Sn4 Ir4,crystal_system=<CrystalSystem.cubic: 'Cubic'> symbol='I-43m' number=217 point_group='-43m' symprec=0.1 version='1.16.2',cubic,9.323808577785025,268.3147127719925,94.16010874544955,32.16284097165325,0.3466699217225114,True,True
1089,SrMg2N2,"[Element Mg, Element N, Element Sr]",Sr1 Mg2 N2,crystal_system=<CrystalSystem.trig: 'Trigonal'> symbol='P-3m1' number=164 point_group='-3m' symprec=0.1 version='1.16.2',trig,3.7066330667933087,73.57960100624621,94.17111045520511,70.1900537269179,0.2014911536424442,False,True
1090,Ca2VN3,"[Element Ca, Element N, Element V]",Ca2 V1 N3,crystal_system=<CrystalSystem.mono: 'Monoclinic'> symbol='C2/c' number=15 point_group='2/m' symprec=0.1 version='1.16.2',mono,3.4024155814066632,337.9581724078324,94.17376193854233,49.72382471652766,0.27550990304920353,False,True
1091,CaPd2,"[Element Ca, Element Pd]",Ca1 Pd2,crystal_system=<CrystalSystem.cubic: 'Cubic'> symbol='Fd-3m' number=227 point_group='m-3m' symprec=0.1 version='1.16.2',cubic,7.419206722785222,113.21431935749467,94.2575985017367,37.080218614489404,0.3261066006371316,True,True
1092,ScInCu2,"[Element Cu, Element In, Element Sc]",Sc1 In1 Cu2,crystal_system=<CrystalSystem.cubic: 'Cubic'> symbol='Fm-3m' number=225 point_group='m-3m' symprec=0.1 version='1.16.2',cubic,7.384023799513487,64.51117530027777,94.55179186754873,41.180667265829875,0.3098394489931787,True,True
1093,MgF2,"[Element F, Element Mg]",Mg1 F2,crystal_system=<CrystalSystem.tet: 'Tetragonal'> symbol='P4_2/mnm' number=136 point_group='4/mmm' symprec=0.1 version='1.16.2',tet,3.187243199654242,64.91790990921109,94.59107175031545,51.58719038639533,0.2692608182753915,False,True
1094,BaSi2(NO)2,"[Element Ba, Element N, Element O, Element Si]",Ba1 Si2 N2 O2,crystal_system=<CrystalSystem.ortho: 'Orthorhombic'> symbol='Pbcn' number=60 point_group='mmm' symprec=0.1 version='1.16.2',ortho,4.3853057260095945,383.97650442915386,94.70723103577153,-18.972107464366374,0.6073287032583616,False,True
1095,Al12Tc,"[Element Al, Element Tc]",Al12 Tc1,crystal_system=<CrystalSystem.cubic: 'Cubic'> symbol='Im-3' number=204 point_group='m-3' symprec=0.1 version='1.16.2',cubic,3.3619310319100686,208.32658640120658,94.80117862373979,73.68348940373417,0.19134532584436545,True,True
1096,In2Pt,"[Element In, Element Pt]",In2 Pt1,crystal_system=<CrystalSystem.cubic: 'Cubic'> symbol='Fm-3m' number=225 point_group='m-3m' symprec=0.1 version='1.16.2',cubic,10.704685865168718,65.8836850748853,94.85489450594628,29.61278277425614,0.35861756832653585,True,True
1097,CaSnN2,"[Element Ca, Element N, Element Sn]",Ca1 Sn1 N2,crystal_system=<CrystalSystem.ortho: 'Orthorhombic'> symbol='Pna2_1' number=33 point_group='mm2' symprec=0.1 version='1.16.2',ortho,4.671623566642753,265.5959051242573,94.92773154824502,35.82692853188386,0.33238086101161224,False,False