,Formula,Elements,Composition,Symmetry,Crystal system,Density [g/m$^3$],Volume [$\mathring{A}^3$],Bulk modulus[GPa],Shear modulus [GPa],Poisson,Metal,Experimental report
3025,Nb3B4,"[Element B, Element Nb]",Nb3 B4,crystal_system=<CrystalSystem.ortho: 'Orthorhombic'> symbol='Immm' number=71 point_group='mmm' symprec=0.1 version='1.16.2',ortho,7.218088167247705,74.06841806132483,273.94422184787777,198.22662129517755,0.20850720563092942,True,True
3026,BRh,"[Element B, Element Rh]",B1 Rh1,crystal_system=<CrystalSystem.hex_: 'Hexagonal'> symbol='P6_3/mmc' number=194 point_group='6/mmm' symprec=0.1 version='1.16.2',hex_,9.336167613158457,40.451435447855424,275.1430428470019,101.19619603964792,0.33618589948621713,True,True
3027,HfIr3,"[Element Hf, Element Ir]",Hf1 Ir3,crystal_system=<CrystalSystem.cubic: 'Cubic'> symbol='Pm-3m' number=221 point_group='m-3m' symprec=0.1 version='1.16.2',cubic,20.453971924324616,61.30550760168775,275.74835416138876,148.87392576526364,0.27122575081918976,True,True