,Formula,Elements,Composition,Symmetry,Crystal system,Density [g/m$^3$],Volume [$\mathring{A}^3$],Bulk modulus[GPa],Shear modulus [GPa],Poisson,Metal,Experimental report
960,CrAs,"[Element As, Element Cr]",Cr1 As1,crystal_system=<CrystalSystem.hex_: 'Hexagonal'> symbol='P6_3/mmc' number=194 point_group='6/mmm' symprec=0.1 version='1.16.2',hex_,6.188480218802444,68.11100355550693,88.41751506638074,66.33441356653451,0.19992299841889505,True,True
961,YAlSi,"[Element Al, Element Si, Element Y]",Y1 Al1 Si1,crystal_system=<CrystalSystem.ortho: 'Orthorhombic'> symbol='Cmcm' number=63 point_group='mmm' symprec=0.1 version='1.16.2',ortho,4.073419232092961,117.3817829345849,88.44270169464544,62.57524813083634,0.21374836128993324,True,True
962,ScNiBi,"[Element Bi, Element Ni, Element Sc]",Sc1 Ni1 Bi1,crystal_system=<CrystalSystem.cubic: 'Cubic'> symbol='F-43m' number=216 point_group='-43m' symprec=0.1 version='1.16.2',cubic,8.61842660880545,60.23533920048788,88.66727015925007,52.513821646351154,0.25269429652722425,False,True
963,MgSbPt,"[Element Mg, Element Pt, Element Sb]",Mg1 Sb1 Pt1,crystal_system=<CrystalSystem.cubic: 'Cubic'> symbol='F-43m' number=216 point_group='-43m' symprec=0.1 version='1.16.2',cubic,9.124191000616669,62.0867364562224,88.69314272300008,35.15095218264163,0.3249631122451455,True,True
964,In3Pd2,"[Element In, Element Pd]",In3 Pd2,crystal_system=<CrystalSystem.trig: 'Trigonal'> symbol='P-3m1' number=164 point_group='-3m' symprec=0.1 version='1.16.2',trig,9.231624362411505,100.24329654808906,88.71750012850703,36.626646539075054,0.3185477092241931,True,True
965,Ca(FeP)2,"[Element Ca, Element Fe, Element P]",Ca1 Fe2 P2,crystal_system=<CrystalSystem.tet: 'Tetragonal'> symbol='I4/mmm' number=139 point_group='4/mmm' symprec=0.1 version='1.16.2',tet,4.935872795112585,71.89872824362266,88.75798507072957,78.86815631237897,0.15723616296486745,True,True
966,ScF3,"[Element F, Element Sc]",Sc1 F3,crystal_system=<CrystalSystem.cubic: 'Cubic'> symbol='Pm-3m' number=221 point_group='m-3m' symprec=0.1 version='1.16.2',cubic,2.56867715669294,65.9070058140142,88.80316027434026,40.65591635605812,0.30139776381732225,False,True
967,TiSb2,"[Element Sb, Element Ti]",Ti1 Sb2,crystal_system=<CrystalSystem.tet: 'Tetragonal'> symbol='I4/mcm' number=140 point_group='4/mmm' symprec=0.1 version='1.16.2',tet,7.432342487722455,130.2037676005016,88.85072032994103,53.815622916104175,0.2480288642323041,True,True
968,Sb3Rh,"[Element Rh, Element Sb]",Sb3 Rh1,crystal_system=<CrystalSystem.cubic: 'Cubic'> symbol='Im-3' number=204 point_group='m-3' symprec=0.1 version='1.16.2',cubic,7.706654854595029,403.5163519498279,88.91388608440764,51.602508657893026,0.2568550925940124,True,True
969,YMnSi,"[Element Mn, Element Si, Element Y]",Y1 Mn1 Si1,crystal_system=<CrystalSystem.tet: 'Tetragonal'> symbol='P4/nmm' number=129 point_group='4/mmm' symprec=0.1 version='1.16.2',tet,5.144117861327769,110.9988086551004,88.96536415296976,54.49803614936361,0.24564857616399788,True,True
970,Mg2AgRh,"[Element Ag, Element Mg, Element Rh]",Mg2 Ag1 Rh1,crystal_system=<CrystalSystem.cubic: 'Cubic'> symbol='Fm-3m' number=225 point_group='m-3m' symprec=0.1 version='1.16.2',cubic,6.702169366698163,64.26527643861198,89.06259445981763,23.6457188705372,0.3780450737916766,True,False
971,Li2PNO2,"[Element Li, Element N, Element O, Element P]",Li2 P1 N1 O2,crystal_system=<CrystalSystem.ortho: 'Orthorhombic'> symbol='Cmc2_1' number=36 point_group='mm2' symprec=0.1 version='1.16.2',ortho,2.5416441840466475,118.72525362803411,89.08676072295808,60.47343198299228,0.22321996774352362,False,True
972,Sc5Si3,"[Element Sc, Element Si]",Sc5 Si3,crystal_system=<CrystalSystem.hex_: 'Hexagonal'> symbol='P6_3/mcm' number=193 point_group='6/mmm' symprec=0.1 version='1.16.2',hex_,3.252798522375358,315.52304705512563,89.09772475657587,72.06879351510273,0.1814516636077617,True,True
973,LiCu2Ge,"[Element Cu, Element Ge, Element Li]",Li1 Cu2 Ge1,crystal_system=<CrystalSystem.cubic: 'Cubic'> symbol='Fm-3m' number=225 point_group='m-3m' symprec=0.1 version='1.16.2',cubic,6.9339714924374745,49.493798883615234,89.19424312197421,35.91460640115544,0.3224962684908784,True,True
974,SrNi3Ge2,"[Element Ge, Element Ni, Element Sr]",Sr1 Ni3 Ge2,crystal_system=<CrystalSystem.hex_: 'Hexagonal'> symbol='P6_3/mmc' number=194 point_group='6/mmm' symprec=0.1 version='1.16.2',hex_,6.839884599528234,198.5786718134755,89.2266988249291,31.915654965545073,0.3402064040689438,True,True
975,YAl2Co,"[Element Al, Element Co, Element Y]",Y1 Al2 Co1,crystal_system=<CrystalSystem.ortho: 'Orthorhombic'> symbol='Cmcm' number=63 point_group='mmm' symprec=0.1 version='1.16.2',ortho,4.757142872522425,140.88301176382524,89.22888037463804,45.48711181575656,0.28213158962660995,True,True
976,ScGe,"[Element Ge, Element Sc]",Sc1 Ge1,crystal_system=<CrystalSystem.ortho: 'Orthorhombic'> symbol='Cmcm' number=63 point_group='mmm' symprec=0.1 version='1.16.2',ortho,5.1084060195115555,76.45148220506046,89.25757955726276,57.11370725561335,0.23630614032275216,True,True
977,CuP2,"[Element Cu, Element P]",Cu1 P2,crystal_system=<CrystalSystem.mono: 'Monoclinic'> symbol='P2_1/c' number=14 point_group='2/m' symprec=0.1 version='1.16.2',mono,4.365565051390864,190.93693187864682,89.26006176683356,50.031008185968346,0.26386447734683816,False,True
978,TiSb,"[Element Sb, Element Ti]",Ti1 Sb1,crystal_system=<CrystalSystem.hex_: 'Hexagonal'> symbol='P6_3/mmc' number=194 point_group='6/mmm' symprec=0.1 version='1.16.2',hex_,6.38607229750209,88.21455415101838,89.26815864865878,45.00401684411031,0.2841937580912611,True,True
979,Zr4In5Co2,"[Element Co, Element In, Element Zr]",Zr4 In5 Co2,crystal_system=<CrystalSystem.mono: 'Monoclinic'> symbol='P2/m' number=10 point_group='2/m' symprec=0.1 version='1.16.2',mono,7.87862609536877,222.74755268005092,89.37433504200055,53.002701324376005,0.25242077980807975,True,True
980,CaMg(CO3)2,"[Element C, Element Ca, Element Mg, Element O]",Ca1 Mg1 C2 O6,crystal_system=<CrystalSystem.trig: 'Trigonal'> symbol='R-3' number=148 point_group='-3' symprec=0.1 version='1.16.2',trig,2.7601826132351106,110.93640357128461,89.40632000383019,43.69941742508777,0.2898516699261825,False,True
981,YSi,"[Element Si, Element Y]",Y1 Si1,crystal_system=<CrystalSystem.ortho: 'Orthorhombic'> symbol='Cmcm' number=63 point_group='mmm' symprec=0.1 version='1.16.2',ortho,4.474688891742332,86.83003973204961,89.41816126123092,65.16045765971177,0.20684971085448903,True,True
982,YCuAs2,"[Element As, Element Cu, Element Y]",Y1 Cu1 As2,crystal_system=<CrystalSystem.tet: 'Tetragonal'> symbol='P4/nmm' number=129 point_group='4/mmm' symprec=0.1 version='1.16.2',tet,6.707201083096394,149.68173279607817,89.43167220965164,48.43634049235273,0.27061156369590994,True,True
983,YInAu2,"[Element Au, Element In, Element Y]",Y1 In1 Au2,crystal_system=<CrystalSystem.cubic: 'Cubic'> symbol='Fm-3m' number=225 point_group='m-3m' symprec=0.1 version='1.16.2',cubic,11.826123653928061,83.91868764798933,89.44365067061787,21.758136660502974,0.38749247639708084,True,True
984,BeP2,"[Element Be, Element P]",Be1 P2,crystal_system=<CrystalSystem.mono: 'Monoclinic'> symbol='C2/c' number=15 point_group='2/m' symprec=0.1 version='1.16.2',mono,2.492746734235346,378.15751548011264,89.44914140892308,72.75716527633843,0.18005195100573881,False,True
985,YTiSi,"[Element Si, Element Ti, Element Y]",Y1 Ti1 Si1,crystal_system=<CrystalSystem.tet: 'Tetragonal'> symbol='P4/nmm' number=129 point_group='4/mmm' symprec=0.1 version='1.16.2',tet,4.41154011809387,124.10800913151348,89.45376046031006,49.22701738550748,0.26749607474497866,True,True
986,Ca4TiN4,"[Element Ca, Element N, Element Ti]",Ca4 Ti1 N4,crystal_system=<CrystalSystem.tri: 'Triclinic'> symbol='P-1' number=2 point_group='-1' symprec=0.1 version='1.16.2',tri,3.088087497285169,284.13965142373837,89.53779273471024,43.09884609414494,0.29260271461360515,False,True
987,Sr2CrN3,"[Element Cr, Element N, Element Sr]",Sr2 Cr1 N3,crystal_system=<CrystalSystem.ortho: 'Orthorhombic'> symbol='Cmce' number=64 point_group='mmm' symprec=0.1 version='1.16.2',ortho,4.727279025742861,378.32371356924705,89.56329026908082,46.21222110222269,0.27987338466692957,False,False
988,SrAu5,"[Element Au, Element Sr]",Sr1 Au5,crystal_system=<CrystalSystem.hex_: 'Hexagonal'> symbol='P6/mmm' number=191 point_group='6/mmm' symprec=0.1 version='1.16.2',hex_,13.880654720960724,128.2972512470619,89.59720439627304,24.241620186663006,0.3759102172093873,True,True
989,Sr(SiPd)2,"[Element Pd, Element Si, Element Sr]",Sr1 Si2 Pd2,crystal_system=<CrystalSystem.tet: 'Tetragonal'> symbol='I4/mmm' number=139 point_group='4/mmm' symprec=0.1 version='1.16.2',tet,6.392451439849546,92.64047031612064,89.61598787689442,42.24762566952815,0.29629592741304367,True,True
990,Ca2SiO4,"[Element Ca, Element O, Element Si]",Ca2 Si1 O4,crystal_system=<CrystalSystem.ortho: 'Orthorhombic'> symbol='Pnma' number=62 point_group='mmm' symprec=0.1 version='1.16.2',ortho,2.962860651405768,386.1265013733575,89.62173423048569,48.66156215915578,0.2701222343474748,False,True
991,CdAu,"[Element Au, Element Cd]",Cd1 Au1,crystal_system=<CrystalSystem.ortho: 'Orthorhombic'> symbol='Pmma' number=51 point_group='mmm' symprec=0.1 version='1.16.2',ortho,13.59810705370262,75.55956687579582,89.78320116867951,16.908662683188894,0.4113982126615081,True,True
992,Ca(NiGe)2,"[Element Ca, Element Ge, Element Ni]",Ca1 Ni2 Ge2,crystal_system=<CrystalSystem.tet: 'Tetragonal'> symbol='I4/mmm' number=139 point_group='4/mmm' symprec=0.1 version='1.16.2',tet,6.135182094839112,81.94044770617145,89.8025764045678,39.585254932869404,0.307834205157429,True,True
993,ZnAg3,"[Element Ag, Element Zn]",Zn1 Ag3,crystal_system=<CrystalSystem.cubic: 'Cubic'> symbol='Pm-3m' number=221 point_group='m-3m' symprec=0.1 version='1.16.2',cubic,9.786931544202833,66.00355559055068,89.82389912536479,19.594073341033905,0.3983237969039503,True,False
994,CaGePt,"[Element Ca, Element Ge, Element Pt]",Ca1 Ge1 Pt1,crystal_system=<CrystalSystem.ortho: 'Orthorhombic'> symbol='Pnma' number=62 point_group='mmm' symprec=0.1 version='1.16.2',ortho,8.677238234864474,235.61286757069018,89.86052253328207,35.75093930025052,0.3243671808978987,True,True
995,Nb5Te4,"[Element Nb, Element Te]",Nb5 Te4,crystal_system=<CrystalSystem.tet: 'Tetragonal'> symbol='I4/m' number=87 point_group='4/m' symprec=0.1 version='1.16.2',tet,8.06393230371461,200.75968476060004,89.87191064851778,43.471429132971394,0.29172846476734754,True,True
996,ScSnAu,"[Element Au, Element Sc, Element Sn]",Sc1 Sn1 Au1,crystal_system=<CrystalSystem.cubic: 'Cubic'> symbol='F-43m' number=216 point_group='-43m' symprec=0.1 version='1.16.2',cubic,8.836162982510135,67.77198706844871,89.99162679096901,42.642953731776565,0.2953909738359788,False,True
997,ThS2,"[Element S, Element Th]",Th1 S2,crystal_system=<CrystalSystem.ortho: 'Orthorhombic'> symbol='Pnma' number=62 point_group='mmm' symprec=0.1 version='1.16.2',ortho,7.252511887947036,271.24320042905623,90.01386076335135,33.639132415314705,0.3338429271943491,False,True
998,SrZnO2,"[Element O, Element Sr, Element Zn]",Sr1 Zn1 O2,crystal_system=<CrystalSystem.ortho: 'Orthorhombic'> symbol='Pnma' number=62 point_group='mmm' symprec=0.1 version='1.16.2',ortho,5.566117779030704,220.7972612182532,90.11284638292032,48.58742532405199,0.27147944631428467,False,True
999,Ba(FeP)2,"[Element Ba, Element Fe, Element P]",Ba1 Fe2 P2,crystal_system=<CrystalSystem.tet: 'Tetragonal'> symbol='I4/mmm' number=139 point_group='4/mmm' symprec=0.1 version='1.16.2',tet,5.79511677805603,89.10411303253994,90.14083009070907,55.58729041082181,0.24423793224374973,True,True
1000,MgTa2N3,"[Element Mg, Element N, Element Ta]",Mg1 Ta2 N3,crystal_system=<CrystalSystem.hex_: 'Hexagonal'> symbol='P6_3/mcm' number=193 point_group='6/mmm' symprec=0.1 version='1.16.2',hex_,11.554978400883043,246.15449462327268,276.30261500880226,201.4905576549192,0.2066806046128431,True,False
1001,VSiOs2,"[Element Os, Element Si, Element V]",V1 Si1 Os2,crystal_system=<CrystalSystem.cubic: 'Cubic'> symbol='Fm-3m' number=225 point_group='m-3m' symprec=0.1 version='1.16.2',cubic,14.487492619421385,52.6658500637985,277.54459058711655,125.92734515042847,0.3029431672190106,True,False
1002,V2TcOs,"[Element Os, Element Tc, Element V]",V2 Tc1 Os1,crystal_system=<CrystalSystem.cubic: 'Cubic'> symbol='Fm-3m' number=225 point_group='m-3m' symprec=0.1 version='1.16.2',cubic,11.910523257810596,54.38870004839775,277.62285713245444,129.45488928651162,0.29821510971812765,True,False
1003,V3B4,"[Element B, Element V]",V3 B4,crystal_system=<CrystalSystem.ortho: 'Orthorhombic'> symbol='Immm' number=71 point_group='mmm' symprec=0.1 version='1.16.2',ortho,5.4958140112987905,59.24134319507657,278.1737439840365,232.11270973542366,0.17358148752298894,True,True
1004,TiSiOs2,"[Element Os, Element Si, Element Ti]",Ti1 Si1 Os2,crystal_system=<CrystalSystem.cubic: 'Cubic'> symbol='Fm-3m' number=225 point_group='m-3m' symprec=0.1 version='1.16.2',cubic,13.958250458932403,54.29697575383238,278.9728230212238,136.19536574961904,0.29006253809594035,True,False
1005,Co3W,"[Element Co, Element W]",Co3 W1,crystal_system=<CrystalSystem.hex_: 'Hexagonal'> symbol='P6_3/mmc' number=194 point_group='6/mmm' symprec=0.1 version='1.16.2',hex_,13.144909764937792,91.11604880731495,279.29452786343495,142.09588654451477,0.2825017397686412,True,True
1006,BeVOs2,"[Element Be, Element Os, Element V]",Be1 V1 Os2,crystal_system=<CrystalSystem.cubic: 'Cubic'> symbol='Fm-3m' number=225 point_group='m-3m' symprec=0.1 version='1.16.2',cubic,14.663539551243748,49.87364216330149,279.96809244183885,111.95681486431792,0.3235717126433563,True,False
1007,V2B3,"[Element B, Element V]",V2 B3,crystal_system=<CrystalSystem.ortho: 'Orthorhombic'> symbol='Cmcm' number=63 point_group='mmm' symprec=0.1 version='1.16.2',ortho,5.403081306931714,82.55917414505952,280.3582037551264,237.24878305092716,0.16997546705176844,True,True
1008,TiN,"[Element N, Element Ti]",Ti1 N1,crystal_system=<CrystalSystem.cubic: 'Cubic'> symbol='Fm-3m' number=225 point_group='m-3m' symprec=0.1 version='1.16.2',cubic,5.386845377479396,19.073073170918462,280.93937413147614,175.7637324845133,0.24116405327276896,True,True
1009,OsO2,"[Element O, Element Os]",Os1 O2,crystal_system=<CrystalSystem.tet: 'Tetragonal'> symbol='P4_2/mnm' number=136 point_group='4/mmm' symprec=0.1 version='1.16.2',tet,11.467906499374536,64.3569258510722,281.11245152897595,103.06992516839142,0.3366402171034038,True,True
1010,Rh3W,"[Element Rh, Element W]",Rh3 W1,crystal_system=<CrystalSystem.hex_: 'Hexagonal'> symbol='P6_3/mmc' number=194 point_group='6/mmm' symprec=0.1 version='1.16.2',hex_,14.496788904720361,112.84006632550741,282.9558405787013,132.0168024776121,0.29811564031757104,True,True
1011,Tc3Pt,"[Element Pt, Element Tc]",Tc3 Pt1,crystal_system=<CrystalSystem.hex_: 'Hexagonal'> symbol='P6_3/mmc' number=194 point_group='6/mmm' symprec=0.1 version='1.16.2',hex_,14.10945307825127,115.12042094684105,283.00445046392394,175.0296818300122,0.24361963879680315,True,False
1012,Tc3Ni,"[Element Ni, Element Tc]",Tc3 Ni1,crystal_system=<CrystalSystem.hex_: 'Hexagonal'> symbol='P6_3/mmc' number=194 point_group='6/mmm' symprec=0.1 version='1.16.2',hex_,11.090370978534704,105.61615483657333,283.5483419506156,149.908226018103,0.2752619976928707,True,False
1013,Cr2N,"[Element Cr, Element N]",Cr2 N1,crystal_system=<CrystalSystem.trig: 'Trigonal'> symbol='P-31m' number=162 point_group='-3m' symprec=0.1 version='1.16.2',trig,6.870987067514143,85.55180558797787,285.039262769158,139.97680090350266,0.28899975577021464,True,True
1014,TiRe2W,"[Element Re, Element Ti, Element W]",Ti1 Re2 W1,crystal_system=<CrystalSystem.cubic: 'Cubic'> symbol='Fm-3m' number=225 point_group='m-3m' symprec=0.1 version='1.16.2',cubic,16.48439865348482,60.855512083929604,285.04313124776866,146.12698703757616,0.2810845605943434,True,False
1015,VB2,"[Element B, Element V]",V1 B2,crystal_system=<CrystalSystem.hex_: 'Hexagonal'> symbol='P6/mmm' number=191 point_group='6/mmm' symprec=0.1 version='1.16.2',hex_,5.165601323982429,23.32633105071563,285.5389712527296,241.22409519016554,0.17041116169284026,True,True
1016,B2Ru,"[Element B, Element Ru]",B2 Ru1,crystal_system=<CrystalSystem.ortho: 'Orthorhombic'> symbol='Pmmn' number=59 point_group='mmm' symprec=0.1 version='1.16.2',ortho,7.562997242704445,53.876750875671036,285.54069537853246,167.57440084518268,0.2545767785156531,True,True
1017,BeSiOs2,"[Element Be, Element Os, Element Si]",Be1 Si1 Os2,crystal_system=<CrystalSystem.cubic: 'Cubic'> symbol='Fm-3m' number=225 point_group='m-3m' symprec=0.1 version='1.16.2',cubic,14.678010986730214,47.23874673120136,286.28956048384157,140.34654819815296,0.2893148382345642,True,False
1018,NbB2,"[Element B, Element Nb]",Nb1 B2,crystal_system=<CrystalSystem.hex_: 'Hexagonal'> symbol='P6/mmm' number=191 point_group='6/mmm' symprec=0.1 version='1.16.2',hex_,6.78238557743704,28.040111705987048,287.2489812355629,195.13917133823026,0.2230460757875461,True,True
1019,CoTc3,"[Element Co, Element Tc]",Co1 Tc3,crystal_system=<CrystalSystem.hex_: 'Hexagonal'> symbol='P6_3/mmc' number=194 point_group='6/mmm' symprec=0.1 version='1.16.2',hex_,11.129785541104768,105.31368390397253,287.6144945279917,143.7986151667256,0.2857253108947246,True,False
1020,VCoB3,"[Element B, Element Co, Element V]",V1 Co1 B3,crystal_system=<CrystalSystem.ortho: 'Orthorhombic'> symbol='Cmcm' number=63 point_group='mmm' symprec=0.1 version='1.16.2',ortho,6.123945771908302,77.17491167517669,288.99542418746023,204.7489388132052,0.2134335002154021,True,True
1021,V2ReOs,"[Element Os, Element Re, Element V]",V2 Re1 Os1,crystal_system=<CrystalSystem.cubic: 'Cubic'> symbol='Fm-3m' number=225 point_group='m-3m' symprec=0.1 version='1.16.2',cubic,14.470571335900818,54.888575433477676,290.7931964034988,144.3020943760308,0.28709841530687474,True,False
1022,Cr5B3,"[Element B, Element Cr]",Cr5 B3,crystal_system=<CrystalSystem.tet: 'Tetragonal'> symbol='I4/mcm' number=140 point_group='4/mmm' symprec=0.1 version='1.16.2',tet,6.726319425790365,144.37733613704606,291.04539040803326,195.51675731124678,0.225565589972395,True,True
1023,Mo2C,"[Element C, Element Mo]",Mo2 C1,crystal_system=<CrystalSystem.ortho: 'Orthorhombic'> symbol='Pbcn' number=60 point_group='mmm' symprec=0.1 version='1.16.2',ortho,9.082795436016154,149.10320288570614,294.3365694125607,149.616854949652,0.28266559235919647,True,True
1024,TiIr3,"[Element Ir, Element Ti]",Ti1 Ir3,crystal_system=<CrystalSystem.cubic: 'Cubic'> symbol='Pm-3m' number=221 point_group='m-3m' symprec=0.1 version='1.16.2',cubic,18.06403995388383,57.40889299638269,294.4639072434695,161.74438073591227,0.2678612665552938,True,True
1025,Ni(BMo)2,"[Element B, Element Mo, Element Ni]",Ni1 B2 Mo2,crystal_system=<CrystalSystem.ortho: 'Orthorhombic'> symbol='Immm' number=71 point_group='mmm' symprec=0.1 version='1.16.2',ortho,8.841647620769608,51.120686419017304,296.23430479972257,178.74367929440947,0.24882535526776917,True,True
1026,Re3Pd,"[Element Pd, Element Re]",Re3 Pd1,crystal_system=<CrystalSystem.hex_: 'Hexagonal'> symbol='P6_3/mmc' number=194 point_group='6/mmm' symprec=0.1 version='1.16.2',hex_,18.81475413301948,117.38942253331511,296.6812430094842,172.7751530892112,0.2561553205401886,True,False
1027,SiIr3,"[Element Ir, Element Si]",Si1 Ir3,crystal_system=<CrystalSystem.tet: 'Tetragonal'> symbol='I4/mcm' number=140 point_group='4/mmm' symprec=0.1 version='1.16.2',tet,18.2085182644015,110.29876991278155,299.00182437285014,119.23799038273373,0.324001834208231,True,True
1028,GdSe,"[Element Gd, Element Se]",Gd1 Se1,crystal_system=<CrystalSystem.cubic: 'Cubic'> symbol='Fm-3m' number=225 point_group='m-3m' symprec=0.1 version='1.16.2',cubic,7.945840555280658,49.36368030452275,90.26212423570709,37.13605844384943,0.3190970126549076,True,True