,Formula,Elements,Composition,Symmetry,Crystal system,Density [g/m$^3$],Volume [$\mathring{A}^3$],Bulk modulus[GPa],Shear modulus [GPa],Poisson,Metal,Experimental report
1512,ZrS,"[Element S, Element Zr]",Zr1 S1,crystal_system=<CrystalSystem.tet: 'Tetragonal'> symbol='P4/nmm' number=129 point_group='4/mmm' symprec=0.1 version='1.16.2',tet,5.6812575738359845,72.07073374911826,119.2634060560454,43.959938293079446,0.3358683714763285,True,True
1513,Mg2SiO4,"[Element Mg, Element O, Element Si]",Mg2 Si1 O4,crystal_system=<CrystalSystem.ortho: 'Orthorhombic'> symbol='Pnma' number=62 point_group='mmm' symprec=0.1 version='1.16.2',ortho,3.235690304073053,288.8118045870756,119.27750289864343,73.64649210421373,0.24397424219611358,False,True
1514,Y2IrRh,"[Element Ir, Element Rh, Element Y]",Y2 Ir1 Rh1,crystal_system=<CrystalSystem.cubic: 'Cubic'> symbol='Fm-3m' number=225 point_group='m-3m' symprec=0.1 version='1.16.2',cubic,9.836202859647535,79.84033333157167,119.31648718178494,46.95244872139857,0.32605991402782286,True,False
1515,ZrGeS,"[Element Ge, Element S, Element Zr]",Zr1 Ge1 S1,crystal_system=<CrystalSystem.tet: 'Tetragonal'> symbol='P4/nmm' number=129 point_group='4/mmm' symprec=0.1 version='1.16.2',tet,6.088043545129817,106.88089083729899,119.35881065903217,77.41606715516528,0.23334994066687634,True,True
1516,Zr2Au,"[Element Au, Element Zr]",Zr2 Au1,crystal_system=<CrystalSystem.tet: 'Tetragonal'> symbol='I4/mmm' number=139 point_group='4/mmm' symprec=0.1 version='1.16.2',tet,9.929104771065182,63.45312380001326,119.5371688469775,45.05203879490087,0.3325881567132132,True,True
1517,NaCrO2,"[Element Cr, Element Na, Element O]",Na1 Cr1 O2,crystal_system=<CrystalSystem.trig: 'Trigonal'> symbol='R-3m' number=166 point_group='-3m' symprec=0.1 version='1.16.2',trig,4.364803715788051,40.70107946071668,119.58154934930607,80.43495647266842,0.2252776917072272,False,True
1518,Sc2FeSi2,"[Element Fe, Element Sc, Element Si]",Sc2 Fe1 Si2,crystal_system=<CrystalSystem.mono: 'Monoclinic'> symbol='C2/m' number=12 point_group='2/m' symprec=0.1 version='1.16.2',mono,4.156048031938566,161.35955975904636,119.75692779349566,75.33614096989217,0.23998524845468294,True,True
1519,Ti3Sb,"[Element Sb, Element Ti]",Ti3 Sb1,crystal_system=<CrystalSystem.cubic: 'Cubic'> symbol='Pm-3n' number=223 point_group='m-3m' symprec=0.1 version='1.16.2',cubic,6.1570440280538365,143.13436942932628,119.82237913946217,25.078677153893647,0.40217546439120144,True,True
1520,Si4P4Ru,"[Element P, Element Ru, Element Si]",Si4 P4 Ru1,crystal_system=<CrystalSystem.tri: 'Triclinic'> symbol='P1' number=1 point_group='1' symprec=0.1 version='1.16.2',tri,3.707272429263886,151.08453487858102,119.8324470882722,86.41462535092987,0.20931047441906112,False,True
1521,TiInCu2,"[Element Cu, Element In, Element Ti]",Ti1 In1 Cu2,crystal_system=<CrystalSystem.cubic: 'Cubic'> symbol='Fm-3m' number=225 point_group='m-3m' symprec=0.1 version='1.16.2',cubic,8.068539641633866,59.637313624787346,120.0000749935007,46.11249177854207,0.32968093631785367,True,True
1522,Sc(CuSi)2,"[Element Cu, Element Sc, Element Si]",Sc1 Cu2 Si2,crystal_system=<CrystalSystem.tet: 'Tetragonal'> symbol='I4/mmm' number=139 point_group='4/mmm' symprec=0.1 version='1.16.2',tet,5.229739991603519,72.46372089652407,120.0378125710939,65.53433237811878,0.26905435556241813,True,True
1523,Al3V,"[Element Al, Element V]",Al3 V1,crystal_system=<CrystalSystem.tet: 'Tetragonal'> symbol='I4/mmm' number=139 point_group='4/mmm' symprec=0.1 version='1.16.2',tet,3.7982548444795543,57.65859759155777,120.04406155487743,100.07808804884712,0.17380751588148155,True,True
1524,LiVO2,"[Element Li, Element O, Element V]",Li1 V1 O2,crystal_system=<CrystalSystem.trig: 'Trigonal'> symbol='R-3m' number=166 point_group='2/m' symprec=0.1 version='1.16.2',trig,4.253525953755533,140.35547132375402,120.0963082557576,62.184921275389726,0.279211464125367,True,True
1525,Y(Sn3Ru2)2,"[Element Ru, Element Sn, Element Y]",Y1 Sn6 Ru4,crystal_system=<CrystalSystem.tet: 'Tetragonal'> symbol='I-42m' number=121 point_group='-42m' symprec=0.1 version='1.16.2',tet,8.633381476559519,231.85468313089476,120.15799442058793,55.85234978600759,0.29876717365990346,True,True
1526,HfAl2,"[Element Al, Element Hf]",Hf1 Al2,crystal_system=<CrystalSystem.hex_: 'Hexagonal'> symbol='P6_3/mmc' number=194 point_group='6/mmm' symprec=0.1 version='1.16.2',hex_,7.555001001228815,204.3665729649558,120.27519154226056,87.59694767271293,0.20698300157789043,True,True
1527,Ca(ZnN)2,"[Element Ca, Element N, Element Zn]",Ca1 Zn2 N2,crystal_system=<CrystalSystem.trig: 'Trigonal'> symbol='P-3m1' number=164 point_group='-3m' symprec=0.1 version='1.16.2',trig,5.360849603333454,61.61277667789498,120.2801978188208,80.17124877327002,0.22731600006046848,False,False
1528,MgSnN2,"[Element Mg, Element N, Element Sn]",Mg1 Sn1 N2,crystal_system=<CrystalSystem.ortho: 'Orthorhombic'> symbol='Pna2_1' number=33 point_group='mm2' symprec=0.1 version='1.16.2',ortho,5.090742861541945,223.1496246597458,120.28990837537684,61.09482409809734,0.2828200584252204,False,False
1529,ZrAl5Ni2,"[Element Al, Element Ni, Element Zr]",Zr1 Al5 Ni2,crystal_system=<CrystalSystem.tet: 'Tetragonal'> symbol='I4/mmm' number=139 point_group='4/mmm' symprec=0.1 version='1.16.2',tet,4.9426176652995935,115.40967081690762,120.37516948710102,83.55225131857247,0.2181591068554929,True,True
1530,LiAlNi2,"[Element Al, Element Li, Element Ni]",Li1 Al1 Ni2,crystal_system=<CrystalSystem.cubic: 'Cubic'> symbol='Fm-3m' number=225 point_group='m-3m' symprec=0.1 version='1.16.2',cubic,5.635138949380176,44.58720009279337,120.40075860381631,-33.010914218038465,0.6508765224247509,True,False
1531,GePtSe,"[Element Ge, Element Pt, Element Se]",Ge1 Pt1 Se1,crystal_system=<CrystalSystem.ortho: 'Orthorhombic'> symbol='Pca2_1' number=29 point_group='mm2' symprec=0.1 version='1.16.2',ortho,10.327003852183793,222.98135412951086,120.58146859339715,65.80276836152015,0.26913856876629827,False,True
1532,Sc2ZnOs,"[Element Os, Element Sc, Element Zn]",Sc2 Zn1 Os1,crystal_system=<CrystalSystem.cubic: 'Cubic'> symbol='Fm-3m' number=225 point_group='m-3m' symprec=0.1 version='1.16.2',cubic,8.307787439456101,69.06780498772447,120.80309508102391,45.867900652808885,0.33148249925294804,True,False
1533,Ti2Ga,"[Element Ga, Element Ti]",Ti2 Ga1,crystal_system=<CrystalSystem.hex_: 'Hexagonal'> symbol='P6_3/mmc' number=194 point_group='6/mmm' symprec=0.1 version='1.16.2',hex_,5.734912127114955,95.81587520527634,120.84881891016866,62.72819866906633,0.2787493404346096,True,True
1534,YInPt2,"[Element In, Element Pt, Element Y]",Y1 In1 Pt2,crystal_system=<CrystalSystem.hex_: 'Hexagonal'> symbol='P6_3/mmc' number=194 point_group='6/mmm' symprec=0.1 version='1.16.2',hex_,12.184013652854418,161.88107570436102,120.95035251064687,36.77053426147185,0.36197992669845275,True,True
1535,ScCo,"[Element Co, Element Sc]",Sc1 Co1,crystal_system=<CrystalSystem.cubic: 'Cubic'> symbol='Pm-3m' number=221 point_group='m-3m' symprec=0.1 version='1.16.2',cubic,5.560204557738095,31.026182396042238,120.9964394765226,59.48035850958095,0.2888119724691567,True,True
1536,LiGePd2,"[Element Ge, Element Li, Element Pd]",Li1 Ge1 Pd2,crystal_system=<CrystalSystem.cubic: 'Cubic'> symbol='Fm-3m' number=225 point_group='m-3m' symprec=0.1 version='1.16.2',cubic,8.8857113375036,54.64689049089221,121.24083660578741,26.223583917106442,0.39912611894903394,True,True
1537,LiRhO2,"[Element Li, Element O, Element Rh]",Li1 Rh1 O2,crystal_system=<CrystalSystem.trig: 'Trigonal'> symbol='R-3m' number=166 point_group='-3m' symprec=0.1 version='1.16.2',trig,6.286704050612769,37.46631942068893,121.2644924165472,48.49596673932931,0.32356096870881823,False,True
1538,SrTiN2,"[Element N, Element Sr, Element Ti]",Sr1 Ti1 N2,crystal_system=<CrystalSystem.tet: 'Tetragonal'> symbol='P4/nmm' number=129 point_group='4/mmm' symprec=0.1 version='1.16.2',tet,4.659605807998935,116.53294840462976,121.34989303044927,50.28565354837377,0.31795305787221323,False,True
1539,Bi2AuO5,"[Element Au, Element Bi, Element O]",Bi2 Au1 O5,crystal_system=<CrystalSystem.tet: 'Tetragonal'> symbol='P4/ncc' number=130 point_group='4/mmm' symprec=0.1 version='1.16.2',tet,10.695889663223916,431.5486039556002,121.38173192002398,50.38597125663832,0.31767605695638607,True,True
1540,CeNi2,"[Element Ce, Element Ni]",Ce1 Ni2,crystal_system=<CrystalSystem.cubic: 'Cubic'> symbol='Fd-3m' number=227 point_group='m-3m' symprec=0.1 version='1.16.2',cubic,9.47086531818366,90.29659799679023,121.42740907671282,39.97006091246752,0.35168892514084865,True,True
1541,Be,[Element Be],Be1,crystal_system=<CrystalSystem.hex_: 'Hexagonal'> symbol='P6_3/mmc' number=194 point_group='mmm' symprec=0.1 version='1.16.2',hex_,1.8826149211854062,31.796370288803224,121.76293888262174,160.26522491635643,0.04258207841189531,True,True
1542,Ti3In3Rh2,"[Element In, Element Rh, Element Ti]",Ti3 In3 Rh2,crystal_system=<CrystalSystem.hex_: 'Hexagonal'> symbol='P-62m' number=189 point_group='-6m2' symprec=0.1 version='1.16.2',hex_,8.162573707015312,141.15542981195088,121.81349613088793,56.04874846232688,0.30053316824691567,True,True
1543,Zr2Ni,"[Element Ni, Element Zr]",Zr2 Ni1,crystal_system=<CrystalSystem.tet: 'Tetragonal'> symbol='I4/mcm' number=140 point_group='4/mmm' symprec=0.1 version='1.16.2',tet,7.299906304575116,109.70680953087206,121.8285345856045,21.724648255067162,0.4158416591159862,True,True
1544,Sr2MnMoO6,"[Element Mn, Element Mo, Element O, Element Sr]",Sr2 Mn1 Mo1 O6,crystal_system=<CrystalSystem.mono: 'Monoclinic'> symbol='P2_1/c' number=14 point_group='2/m' symprec=0.1 version='1.16.2',mono,5.239322020701259,267.5680264466202,122.11639703864051,57.80509804637279,0.2955752204208356,False,True
1545,ZrZnCu2,"[Element Cu, Element Zn, Element Zr]",Zr1 Zn1 Cu2,crystal_system=<CrystalSystem.cubic: 'Cubic'> symbol='Fm-3m' number=225 point_group='m-3m' symprec=0.1 version='1.16.2',cubic,8.06140762846897,58.44344665158231,122.14204032077325,42.73752362113707,0.3433236034521882,True,True
1546,TiNiSn,"[Element Ni, Element Sn, Element Ti]",Ti1 Ni1 Sn1,crystal_system=<CrystalSystem.cubic: 'Cubic'> symbol='F-43m' number=216 point_group='-43m' symprec=0.1 version='1.16.2',cubic,7.260028479048589,51.52463255869068,122.18962344033785,67.61773600283499,0.2663985887012807,False,True
1547,AsPd2,"[Element As, Element Pd]",As1 Pd2,crystal_system=<CrystalSystem.ortho: 'Orthorhombic'> symbol='Cmc2_1' number=36 point_group='mm2' symprec=0.1 version='1.16.2',ortho,10.140649920570864,188.48471544136405,122.27724317889661,29.40143074370228,0.3886964783958395,True,True
1548,NbGa3,"[Element Ga, Element Nb]",Nb1 Ga3,crystal_system=<CrystalSystem.tet: 'Tetragonal'> symbol='I4/mmm' number=139 point_group='4/mmm' symprec=0.1 version='1.16.2',tet,7.976664600570443,62.88442534141004,122.30423291592672,86.79741170598525,0.21304118079104323,True,True
1549,Nb2Se,"[Element Nb, Element Se]",Nb2 Se1,crystal_system=<CrystalSystem.mono: 'Monoclinic'> symbol='C2/m' number=12 point_group='2/m' symprec=0.1 version='1.16.2',mono,7.710483235474518,228.08713712193054,122.36218968176692,57.420195158248696,0.2971050169271887,True,True
1550,MnGaPt,"[Element Ga, Element Mn, Element Pt]",Mn1 Ga1 Pt1,crystal_system=<CrystalSystem.hex_: 'Hexagonal'> symbol='P6_3/mmc' number=194 point_group='6/mmm' symprec=0.1 version='1.16.2',hex_,11.737133828926098,90.47338921291906,122.43163083455069,38.29551338002286,0.35837123058944037,True,True
1551,HfSnPd,"[Element Hf, Element Pd, Element Sn]",Hf1 Sn1 Pd1,crystal_system=<CrystalSystem.cubic: 'Cubic'> symbol='F-43m' number=216 point_group='-43m' symprec=0.1 version='1.16.2',cubic,10.626912406806408,63.06881551332067,122.4338723546432,57.65480949931447,0.29649157221040173,False,True
1552,LiPd3,"[Element Li, Element Pd]",Li1 Pd3,crystal_system=<CrystalSystem.cubic: 'Cubic'> symbol='Pm-3m' number=221 point_group='m-3m' symprec=0.1 version='1.16.2',cubic,9.491900369276776,57.06649701225829,122.43913736352494,41.344374020846494,0.34824477565817474,True,False
1553,Mg2TaN3,"[Element Mg, Element N, Element Ta]",Mg2 Ta1 N3,crystal_system=<CrystalSystem.ortho: 'Orthorhombic'> symbol='Cmc2_1' number=36 point_group='mm2' symprec=0.1 version='1.16.2',ortho,5.685921711100085,158.62541495706338,122.47675473203245,53.18780887785313,0.3103226693667227,False,False
1554,Sc2CoSi2,"[Element Co, Element Sc, Element Si]",Sc2 Co1 Si2,crystal_system=<CrystalSystem.mono: 'Monoclinic'> symbol='C2/m' number=12 point_group='2/m' symprec=0.1 version='1.16.2',mono,4.248903052029142,160.24705890416857,122.53094021954621,77.4304837391453,0.2390120372103005,True,True
1555,Ca2Mn3O8,"[Element Ca, Element Mn, Element O]",Ca2 Mn3 O8,crystal_system=<CrystalSystem.mono: 'Monoclinic'> symbol='C2/m' number=12 point_group='2/m' symprec=0.1 version='1.16.2',mono,4.137001121818306,149.70349076986702,122.57252968273907,56.62497026365803,0.2998375285919381,False,True
1556,Mg2CrN3,"[Element Cr, Element Mg, Element N]",Mg2 Cr1 N3,crystal_system=<CrystalSystem.ortho: 'Orthorhombic'> symbol='Cmc2_1' number=36 point_group='mm2' symprec=0.1 version='1.16.2',ortho,3.351608068567136,141.3270120942011,122.59827786562359,47.94865036749888,0.32700155666802394,False,False
1557,Si3P2Pt,"[Element P, Element Pt, Element Si]",Si3 P2 Pt1,crystal_system=<CrystalSystem.tri: 'Triclinic'> symbol='P1' number=1 point_group='1' symprec=0.1 version='1.16.2',tri,5.51818552930237,205.40161029575444,122.6062109584908,80.49934168267454,0.23066212069007594,False,True
1558,CaRh2,"[Element Ca, Element Rh]",Ca1 Rh2,crystal_system=<CrystalSystem.cubic: 'Cubic'> symbol='Fd-3m' number=227 point_group='m-3m' symprec=0.1 version='1.16.2',cubic,7.6982701884083795,106.07793193905168,122.64658627989147,48.9441972443975,0.32389272891137455,True,True
1559,HfInCu2,"[Element Cu, Element Hf, Element In]",Hf1 In1 Cu2,crystal_system=<CrystalSystem.cubic: 'Cubic'> symbol='Fm-3m' number=225 point_group='m-3m' symprec=0.1 version='1.16.2',cubic,10.940493800385012,63.80796299834958,122.72782641766523,48.71733761381691,0.3247160872220815,True,True
1560,GePd,"[Element Ge, Element Pd]",Ge1 Pd1,crystal_system=<CrystalSystem.ortho: 'Orthorhombic'> symbol='Pnma' number=62 point_group='mmm' symprec=0.1 version='1.16.2',ortho,9.202347407580191,129.24359931052948,122.74045306702764,44.594914396510845,0.3379609141572461,True,True
1561,MgAlPd2,"[Element Al, Element Mg, Element Pd]",Mg1 Al1 Pd2,crystal_system=<CrystalSystem.cubic: 'Cubic'> symbol='Fm-3m' number=225 point_group='m-3m' symprec=0.1 version='1.16.2',cubic,7.4190242790061856,59.11726655380139,122.76183516244686,35.64524445466973,0.3676311058524744,True,False
1562,Cd2PdRh,"[Element Cd, Element Pd, Element Rh]",Cd2 Pd1 Rh1,crystal_system=<CrystalSystem.cubic: 'Cubic'> symbol='Fm-3m' number=225 point_group='m-3m' symprec=0.1 version='1.16.2',cubic,10.807459334851929,66.70567633707415,122.80144463146598,44.676836340995,0.3377673461288393,True,False
1563,Ga3Ni2,"[Element Ga, Element Ni]",Ga3 Ni2,crystal_system=<CrystalSystem.trig: 'Trigonal'> symbol='P-3m1' number=164 point_group='-3m' symprec=0.1 version='1.16.2',trig,8.000560882493867,67.77758100826901,122.86448771404922,63.120577843129965,0.2806861538517257,True,True
1564,Cu3Ge,"[Element Cu, Element Ge]",Cu3 Ge1,crystal_system=<CrystalSystem.ortho: 'Orthorhombic'> symbol='Pmmn' number=59 point_group='mmm' symprec=0.1 version='1.16.2',ortho,8.859058014649202,98.69749213819236,122.93827083293368,42.61159682394269,0.3446444035006659,True,True
1565,Y(Al2Fe)4,"[Element Al, Element Fe, Element Y]",Y1 Al8 Fe4,crystal_system=<CrystalSystem.tet: 'Tetragonal'> symbol='I4/mmm' number=139 point_group='4/mmm' symprec=0.1 version='1.16.2',tet,4.632694331826458,189.30539820524615,123.09729795098181,84.98269560638968,0.2193898880382005,True,True
1566,ScAgO2,"[Element Ag, Element O, Element Sc]",Sc1 Ag1 O2,crystal_system=<CrystalSystem.hex_: 'Hexagonal'> symbol='P6_3/mmc' number=194 point_group='6/mmm' symprec=0.1 version='1.16.2',hex_,5.53811517415263,110.83397731096576,123.24835067690324,38.808938467694084,0.35751355009279107,False,True
1567,LiTaO3,"[Element Li, Element O, Element Ta]",Li1 Ta1 O3,crystal_system=<CrystalSystem.trig: 'Trigonal'> symbol='R3c' number=161 point_group='3m' symprec=0.1 version='1.16.2',trig,7.452082824503236,105.12489484369374,123.26804875758492,83.1283724114243,0.22469947845788898,False,True
1568,LiBePd2,"[Element Be, Element Li, Element Pd]",Li1 Be1 Pd2,crystal_system=<CrystalSystem.cubic: 'Cubic'> symbol='Fm-3m' number=225 point_group='m-3m' symprec=0.1 version='1.16.2',cubic,8.090607856267628,46.958154891712816,123.36262311003675,59.034134513632715,0.2936456276367189,True,False
1569,Hf2Cu,"[Element Cu, Element Hf]",Hf2 Cu1,crystal_system=<CrystalSystem.tet: 'Tetragonal'> symbol='I4/mmm' number=139 point_group='4/mmm' symprec=0.1 version='1.16.2',tet,12.635812480611495,55.26354973948127,123.36928558062608,58.014266995746695,0.29673696903608004,True,True
1570,Zr2Pd,"[Element Pd, Element Zr]",Zr2 Pd1,crystal_system=<CrystalSystem.tet: 'Tetragonal'> symbol='I4/mmm' number=139 point_group='4/mmm' symprec=0.1 version='1.16.2',tet,7.975337713415056,60.14498900576465,123.41172697730286,48.761102042870746,0.32543603359672585,True,True
1571,NaPt2,"[Element Na, Element Pt]",Na1 Pt2,crystal_system=<CrystalSystem.cubic: 'Cubic'> symbol='Fd-3m' number=227 point_group='m-3m' symprec=0.1 version='1.16.2',cubic,12.985374344010706,105.66728357356682,123.53076904762972,68.12753480366071,0.267069340305923,True,True
1572,YVO4,"[Element O, Element V, Element Y]",Y1 V1 O4,crystal_system=<CrystalSystem.tet: 'Tetragonal'> symbol='I4_1/amd' number=141 point_group='4/mmm' symprec=0.1 version='1.16.2',tet,4.224206533628038,160.26323538371267,123.58508282788694,47.302752421394096,0.3302768312567099,False,True
1573,Hf2SbP,"[Element Hf, Element P, Element Sb]",Hf2 Sb1 P1,crystal_system=<CrystalSystem.hex_: 'Hexagonal'> symbol='P6_3/mmc' number=194 point_group='6/mmm' symprec=0.1 version='1.16.2',hex_,10.340064100337049,163.71264362994907,123.59549365661134,69.5365413747738,0.263117514258591,True,True
1574,ScNiGe,"[Element Ge, Element Ni, Element Sc]",Sc1 Ni1 Ge1,crystal_system=<CrystalSystem.ortho: 'Orthorhombic'> symbol='Pnma' number=62 point_group='mmm' symprec=0.1 version='1.16.2',ortho,6.320597763044536,185.25797753599178,123.61380448676911,62.610054141092135,0.2833319570208441,True,True
1575,TiBe2,"[Element Be, Element Ti]",Ti1 Be2,crystal_system=<CrystalSystem.cubic: 'Cubic'> symbol='Fd-3m' number=227 point_group='m-3m' symprec=0.1 version='1.16.2',cubic,3.280737793848888,66.70157199316887,123.62027857457747,106.48635446323946,0.16538080671995828,True,True
1576,MnAu2,"[Element Au, Element Mn]",Mn1 Au2,crystal_system=<CrystalSystem.tet: 'Tetragonal'> symbol='I4/mmm' number=139 point_group='4/mmm' symprec=0.1 version='1.16.2',tet,14.831388091619958,50.256127790466635,123.70114550136263,29.99241119690442,0.38783574536305193,True,True
1577,Cd(CuO2)2,"[Element Cd, Element Cu, Element O]",Cd1 Cu2 O4,crystal_system=<CrystalSystem.tet: 'Tetragonal'> symbol='I4_1/a' number=88 point_group='4/m' symprec=0.1 version='1.16.2',tet,6.719774187721026,149.99748174795735,123.71165667598908,47.663486391972135,0.3292848779837235,False,False
1578,Y2ReC2,"[Element C, Element Re, Element Y]",Y2 Re1 C2,crystal_system=<CrystalSystem.ortho: 'Orthorhombic'> symbol='Pnma' number=62 point_group='mmm' symprec=0.1 version='1.16.2',ortho,7.7408245538537495,332.96491399566975,123.73162141017139,74.11672334467178,0.2503431571983583,True,True
1579,MgGaNi2,"[Element Ga, Element Mg, Element Ni]",Mg1 Ga1 Ni2,crystal_system=<CrystalSystem.cubic: 'Cubic'> symbol='Fm-3m' number=225 point_group='m-3m' symprec=0.1 version='1.16.2',cubic,7.027793109464501,49.953453266095885,123.84750755378985,35.343360524513066,0.3697053818341737,True,False