,Formula,Elements,Composition,Symmetry,Crystal system,Density [g/m$^3$],Volume [$\mathring{A}^3$],Bulk modulus[GPa],Shear modulus [GPa],Poisson,Metal,Experimental report
1443,YCo2,"[Element Co, Element Y]",Y1 Co2,crystal_system=<CrystalSystem.cubic: 'Cubic'> symbol='Fd-3m' number=227 point_group='m-3m' symprec=0.1 version='1.16.2',cubic,7.442143821900807,92.27270814035273,114.94345671068376,28.536828953492083,0.3853534977494612,True,True
1444,MgPd2,"[Element Mg, Element Pd]",Mg1 Pd2,crystal_system=<CrystalSystem.ortho: 'Orthorhombic'> symbol='Pnma' number=62 point_group='mmm' symprec=0.1 version='1.16.2',ortho,8.572537595105937,183.74420996353328,114.96090652189346,41.71937602004375,0.3381305617724219,True,True
1445,TiAl,"[Element Al, Element Ti]",Ti1 Al1,crystal_system=<CrystalSystem.tet: 'Tetragonal'> symbol='P4/mmm' number=123 point_group='4/mmm' symprec=0.1 version='1.16.2',tet,3.868788488640576,32.12605775377784,115.05343424776785,69.55592546701432,0.24842101392856536,True,True
1446,HgPd,"[Element Hg, Element Pd]",Hg1 Pd1,crystal_system=<CrystalSystem.tet: 'Tetragonal'> symbol='P4/mmm' number=123 point_group='4/mmm' symprec=0.1 version='1.16.2',tet,14.41030685485461,70.75520375405766,115.10212254801857,34.50205249106928,0.3637389905200321,True,True
1447,Ti3Al,"[Element Al, Element Ti]",Ti3 Al1,crystal_system=<CrystalSystem.hex_: 'Hexagonal'> symbol='P6_3/mmc' number=194 point_group='6/mmm' symprec=0.1 version='1.16.2',hex_,4.276268203576033,132.4795152877581,115.21792393507477,61.058899327316176,0.27480822336826766,True,True
1448,Fe(SiP)4,"[Element Fe, Element P, Element Si]",Fe1 Si4 P4,crystal_system=<CrystalSystem.tri: 'Triclinic'> symbol='P1' number=1 point_group='1' symprec=0.1 version='1.16.2',tri,3.3966395078182927,142.79220689747766,115.23831492452364,90.52759022954136,0.18872502232423696,False,True
1449,CoAs3,"[Element As, Element Co]",Co1 As3,crystal_system=<CrystalSystem.cubic: 'Cubic'> symbol='Im-3' number=204 point_group='m-3' symprec=0.1 version='1.16.2',cubic,6.839789408557092,275.5006481481551,115.32099451894507,82.98701162567812,0.20980179779334854,True,True
1450,Ti2Sn,"[Element Sn, Element Ti]",Ti2 Sn1,crystal_system=<CrystalSystem.hex_: 'Hexagonal'> symbol='P6_3/mmc' number=194 point_group='6/mmm' symprec=0.1 version='1.16.2',hex_,6.526931631863566,109.11486734733852,115.36544744196686,60.12118805102991,0.2779963311950991,True,True
1451,LiZr2Tc,"[Element Li, Element Tc, Element Zr]",Li1 Zr2 Tc1,crystal_system=<CrystalSystem.cubic: 'Cubic'> symbol='Fm-3m' number=225 point_group='m-3m' symprec=0.1 version='1.16.2',cubic,6.623504568946907,72.0495708644136,115.41083109426972,28.903714617562393,0.3844271200346037,True,False
1452,Sb2Ru,"[Element Ru, Element Sb]",Sb2 Ru1,crystal_system=<CrystalSystem.ortho: 'Orthorhombic'> symbol='Pnnm' number=58 point_group='mmm' symprec=0.1 version='1.16.2',ortho,8.86779328609775,129.0524346923498,115.59856792133904,77.18049074902041,0.22694048009818016,False,True
1453,CdAu3,"[Element Au, Element Cd]",Cd1 Au3,crystal_system=<CrystalSystem.cubic: 'Cubic'> symbol='Pm-3m' number=221 point_group='m-3m' symprec=0.1 version='1.16.2',cubic,16.145238293037238,72.33556320040327,115.7173449892708,15.19305763581139,0.43710529846019736,True,True
1454,LiZnN,"[Element Li, Element N, Element Zn]",Li1 Zn1 N1,crystal_system=<CrystalSystem.cubic: 'Cubic'> symbol='F-43m' number=216 point_group='-43m' symprec=0.1 version='1.16.2',cubic,4.982091077680031,28.78282869116706,115.75408757557433,84.89798033148799,0.20532465088400403,False,True
1455,SrHfN2,"[Element Hf, Element N, Element Sr]",Sr1 Hf1 N2,crystal_system=<CrystalSystem.tet: 'Tetragonal'> symbol='P4/nmm' number=129 point_group='4/mmm' symprec=0.1 version='1.16.2',tet,7.347672817735369,132.94097552148477,115.78334929088587,45.453206399029575,0.3264275846569566,False,False
1456,CoSbS,"[Element Co, Element S, Element Sb]",Co1 Sb1 S1,crystal_system=<CrystalSystem.ortho: 'Orthorhombic'> symbol='Pbca' number=61 point_group='mmm' symprec=0.1 version='1.16.2',ortho,7.023037647410139,402.4393002273977,115.81959334387969,78.76491258264417,0.22280431397584163,False,True
1457,CoCO3,"[Element C, Element Co, Element O]",Co1 C1 O3,crystal_system=<CrystalSystem.trig: 'Trigonal'> symbol='R-3c' number=167 point_group='-3m' symprec=0.1 version='1.16.2',trig,4.285997319660145,92.16431121165972,115.87450193833865,55.586266073154604,0.29321086708965716,True,True
1458,Li2MgMn3O8,"[Element Li, Element Mg, Element Mn, Element O]",Li2 Mg1 Mn3 O8,crystal_system=<CrystalSystem.cubic: 'Cubic'> symbol='P4_332' number=212 point_group='432' symprec=0.1 version='1.16.2',cubic,3.8036870434954486,577.999545055977,115.92815820568259,68.31327562383606,0.25373595897494505,False,True
1459,As3Rh,"[Element As, Element Rh]",As3 Rh1,crystal_system=<CrystalSystem.cubic: 'Cubic'> symbol='Im-3' number=204 point_group='m-3' symprec=0.1 version='1.16.2',cubic,7.0863476131001,307.1310434213981,116.05717168547059,71.56540774493484,0.24424906224366624,True,True
1460,PuF3,"[Element F, Element Pu]",Pu1 F3,crystal_system=<CrystalSystem.hex_: 'Hexagonal'> symbol='P6_3/mmc' number=194 point_group='6/mmm' symprec=0.1 version='1.16.2',hex_,9.613022677696431,103.98691882000759,116.07851547289306,31.75119049156625,0.374661978666379,True,True
1461,Y(SiAu)2,"[Element Au, Element Si, Element Y]",Y1 Si2 Au2,crystal_system=<CrystalSystem.tet: 'Tetragonal'> symbol='I4/mmm' number=139 point_group='4/mmm' symprec=0.1 version='1.16.2',tet,9.755675798667392,91.74629834294608,116.10263988390423,45.425446058883445,0.3269433707622117,True,True
1462,CdAgPd2,"[Element Ag, Element Cd, Element Pd]",Cd1 Ag1 Pd2,crystal_system=<CrystalSystem.cubic: 'Cubic'> symbol='Fm-3m' number=225 point_group='m-3m' symprec=0.1 version='1.16.2',cubic,10.85764772722479,66.2400706085874,116.19957921583608,20.837929012994802,0.41539309348463777,True,False
1463,Mn2SiO4,"[Element Mn, Element O, Element Si]",Mn2 Si1 O4,crystal_system=<CrystalSystem.ortho: 'Orthorhombic'> symbol='Pnma' number=62 point_group='mmm' symprec=0.1 version='1.16.2',ortho,4.140242289153002,324.0014486422718,116.21152015488332,50.003797083923686,0.31184526223935644,False,True
1464,NaRhO2,"[Element Na, Element O, Element Rh]",Na1 Rh1 O2,crystal_system=<CrystalSystem.trig: 'Trigonal'> symbol='R-3m' number=166 point_group='-3m' symprec=0.1 version='1.16.2',trig,6.118637517373269,42.850923866535034,116.30102402145761,64.60067067320477,0.26565869665827047,False,True
1465,LiCuPd2,"[Element Cu, Element Li, Element Pd]",Li1 Cu1 Pd2,crystal_system=<CrystalSystem.cubic: 'Cubic'> symbol='Fm-3m' number=225 point_group='m-3m' symprec=0.1 version='1.16.2',cubic,8.947763097812857,52.58024234432165,116.31708291804782,42.690176910662395,0.33649516836148113,True,False
1466,Ce2C3,"[Element C, Element Ce]",Ce2 C3,crystal_system=<CrystalSystem.cubic: 'Cubic'> symbol='I-43d' number=220 point_group='-43m' symprec=0.1 version='1.16.2',cubic,7.0926645249711475,296.17579772122406,116.40011401505338,70.49060714183318,0.24806244709928416,True,True
1467,PbO2,"[Element O, Element Pb]",Pb1 O2,crystal_system=<CrystalSystem.tet: 'Tetragonal'> symbol='P4_2/mnm' number=136 point_group='4/mmm' symprec=0.1 version='1.16.2',tet,9.340001787646925,85.05329251846074,116.4959996650505,41.36694718572619,0.3412443762452121,True,True
1468,USi3,"[Element Si, Element U]",U1 Si3,crystal_system=<CrystalSystem.cubic: 'Cubic'> symbol='Pm-3m' number=221 point_group='m-3m' symprec=0.1 version='1.16.2',cubic,8.330256457760838,64.24382209765132,116.55938335872474,9.847623692438466,0.4589141123769211,True,True
1469,Hf2Ga3,"[Element Ga, Element Hf]",Hf2 Ga3,crystal_system=<CrystalSystem.ortho: 'Orthorhombic'> symbol='Fdd2' number=43 point_group='mm2' symprec=0.1 version='1.16.2',ortho,10.865684955763411,173.04247929954306,116.67385006008323,64.00254748864162,0.2681202090083658,True,True
1470,LiHfPd2,"[Element Hf, Element Li, Element Pd]",Li1 Hf1 Pd2,crystal_system=<CrystalSystem.cubic: 'Cubic'> symbol='Fm-3m' number=225 point_group='m-3m' symprec=0.1 version='1.16.2',cubic,10.387402626680947,63.66794263804963,116.7143255394692,21.494264834744392,0.4132449774784455,True,False
1471,ZrCoBi,"[Element Bi, Element Co, Element Zr]",Zr1 Co1 Bi1,crystal_system=<CrystalSystem.cubic: 'Cubic'> symbol='F-43m' number=216 point_group='-43m' symprec=0.1 version='1.16.2',cubic,10.067019071365685,59.23918516043565,116.81632279697368,62.32162313860957,0.27352447915072364,False,True
1472,ZrInCu2,"[Element Cu, Element In, Element Zr]",Zr1 In1 Cu2,crystal_system=<CrystalSystem.cubic: 'Cubic'> symbol='Fm-3m' number=225 point_group='m-3m' symprec=0.1 version='1.16.2',cubic,8.487243337267126,65.17805598712194,116.83432360740478,50.927799596787274,0.30970143540455186,True,True
1473,MgZrAu2,"[Element Au, Element Mg, Element Zr]",Mg1 Zr1 Au2,crystal_system=<CrystalSystem.cubic: 'Cubic'> symbol='Fm-3m' number=225 point_group='m-3m' symprec=0.1 version='1.16.2',cubic,11.291063409156703,74.92489878468801,116.83828273463475,32.25901239714926,0.37358457936562994,True,False
1474,ZnCO3,"[Element C, Element O, Element Zn]",Zn1 C1 O3,crystal_system=<CrystalSystem.trig: 'Trigonal'> symbol='R-3c' number=167 point_group='-3m' symprec=0.1 version='1.16.2',trig,4.4569833415877556,93.45393807406116,116.88754446339105,49.286430353644775,0.3151523475553832,False,True
1475,Li2NiO3,"[Element Li, Element Ni, Element O]",Li2 Ni1 O3,crystal_system=<CrystalSystem.mono: 'Monoclinic'> symbol='C2/m' number=12 point_group='2/m' symprec=0.1 version='1.16.2',mono,4.25723064034632,94.05981968799996,117.02320539366659,80.64028989874126,0.21981084254812236,False,True
1476,Y(CuSi)2,"[Element Cu, Element Si, Element Y]",Y1 Cu2 Si2,crystal_system=<CrystalSystem.tet: 'Tetragonal'> symbol='I4/mmm' number=139 point_group='4/mmm' symprec=0.1 version='1.16.2',tet,5.812244413523136,77.75774313362784,117.07074927671704,74.97991323498462,0.23610525925349443,True,True
1477,Mn3Al9Si,"[Element Al, Element Mn, Element Si]",Mn3 Al9 Si1,crystal_system=<CrystalSystem.hex_: 'Hexagonal'> symbol='P6_3/mmc' number=194 point_group='6/mmm' symprec=0.1 version='1.16.2',hex_,3.887305265411169,372.2642914560669,117.08972192540432,78.89560447839351,0.22488819424346396,True,True
1478,HfAg,"[Element Ag, Element Hf]",Hf1 Ag1,crystal_system=<CrystalSystem.tet: 'Tetragonal'> symbol='P4/nmm' number=129 point_group='4/mmm' symprec=0.1 version='1.16.2',tet,12.358941234292457,76.94979191613233,117.29622133454671,50.26659624362817,0.31251048582808033,True,True
1479,TaVO5,"[Element O, Element Ta, Element V]",Ta1 V1 O5,crystal_system=<CrystalSystem.ortho: 'Orthorhombic'> symbol='Pnma' number=62 point_group='mmm' symprec=0.1 version='1.16.2',ortho,4.47173837080606,463.2645967944659,117.45122496642932,44.045954130866306,0.33332746461457063,False,True
1480,Li(NiP)2,"[Element Li, Element Ni, Element P]",Li1 Ni2 P2,crystal_system=<CrystalSystem.tet: 'Tetragonal'> symbol='I4/mmm' number=139 point_group='4/mmm' symprec=0.1 version='1.16.2',tet,4.868537242226078,63.53396045998839,117.49194052555438,41.09329060388434,0.3433821811769884,True,True
1481,LiCoO2,"[Element Co, Element Li, Element O]",Li1 Co1 O2,crystal_system=<CrystalSystem.trig: 'Trigonal'> symbol='R-3m' number=166 point_group='-3m' symprec=0.1 version='1.16.2',trig,5.121430775621985,31.733696867729034,117.60572212900833,24.954440371393694,0.4009145740774856,False,True
1482,FeSe2,"[Element Fe, Element Se]",Fe1 Se2,crystal_system=<CrystalSystem.ortho: 'Orthorhombic'> symbol='Pnnm' number=58 point_group='mmm' symprec=0.1 version='1.16.2',ortho,7.205959167435247,98.51988481308271,117.61282761532246,91.79034442298294,0.1903360551762196,False,True
1483,LiGaNi2,"[Element Ga, Element Li, Element Ni]",Li1 Ga1 Ni2,crystal_system=<CrystalSystem.cubic: 'Cubic'> symbol='Fm-3m' number=225 point_group='m-3m' symprec=0.1 version='1.16.2',cubic,7.239610233913724,44.509155036484145,117.82620495095875,-17.06006639795207,0.5760662564964275,True,False
1484,ScMnSi,"[Element Mn, Element Sc, Element Si]",Sc1 Mn1 Si1,crystal_system=<CrystalSystem.hex_: 'Hexagonal'> symbol='P-62m' number=189 point_group='-6m2' symprec=0.1 version='1.16.2',hex_,4.298930647637319,148.30308196822327,117.94860825859249,74.84576201646574,0.2381132579139992,True,True
1485,ZrAs,"[Element As, Element Zr]",Zr1 As1,crystal_system=<CrystalSystem.hex_: 'Hexagonal'> symbol='P6_3/mmc' number=194 point_group='6/mmm' symprec=0.1 version='1.16.2',hex_,6.726416529571339,164.06433251987679,117.97373227385913,65.06119416036748,0.2670742414452527,True,True
1486,Ti3Ga,"[Element Ga, Element Ti]",Ti3 Ga1,crystal_system=<CrystalSystem.hex_: 'Hexagonal'> symbol='P6_3/mmc' number=194 point_group='6/mmm' symprec=0.1 version='1.16.2',hex_,5.476464414433232,129.3655209042524,117.99909681923657,55.7107322747929,0.2960349962032609,True,True
1487,SrPt2,"[Element Pt, Element Sr]",Sr1 Pt2,crystal_system=<CrystalSystem.cubic: 'Cubic'> symbol='Fd-3m' number=227 point_group='m-3m' symprec=0.1 version='1.16.2',cubic,13.218975445722604,120.03738758882473,118.0271256761601,49.87035165876367,0.31481567678581956,True,True
1488,AgHgPd2,"[Element Ag, Element Hg, Element Pd]",Ag1 Hg1 Pd2,crystal_system=<CrystalSystem.cubic: 'Cubic'> symbol='Fm-3m' number=225 point_group='m-3m' symprec=0.1 version='1.16.2',cubic,12.827224293893083,67.48428238370956,118.05159039611864,15.924472513501152,0.4354551513580823,True,False
1489,Sc2CuRu,"[Element Cu, Element Ru, Element Sc]",Sc2 Cu1 Ru1,crystal_system=<CrystalSystem.cubic: 'Cubic'> symbol='Fm-3m' number=225 point_group='m-3m' symprec=0.1 version='1.16.2',cubic,6.366075492198763,66.39151480478435,118.0559271683224,46.54906316172042,0.32575328271847614,True,False
1490,Hf5CuSn3,"[Element Cu, Element Hf, Element Sn]",Hf5 Cu1 Sn3,crystal_system=<CrystalSystem.hex_: 'Hexagonal'> symbol='P6_3/mcm' number=193 point_group='6/mmm' symprec=0.1 version='1.16.2',hex_,11.940486899450683,364.9493528445357,118.21462500236417,62.11586428440235,0.27643282773666666,True,True
1491,ScInNi2,"[Element In, Element Ni, Element Sc]",Sc1 In1 Ni2,crystal_system=<CrystalSystem.cubic: 'Cubic'> symbol='Fm-3m' number=225 point_group='m-3m' symprec=0.1 version='1.16.2',cubic,7.621901461664839,60.38338232493269,118.23404300018915,48.58914520109795,0.31927772192462195,True,True
1492,Ti2PbC,"[Element C, Element Pb, Element Ti]",Ti2 Pb1 C1,crystal_system=<CrystalSystem.hex_: 'Hexagonal'> symbol='P6_3/mmc' number=194 point_group='6/mmm' symprec=0.1 version='1.16.2',hex_,8.404958048655972,124.44511326317584,118.25301936263273,72.41115795803748,0.24572961115487477,True,True
1493,CdWO4,"[Element Cd, Element O, Element W]",Cd1 W1 O4,crystal_system=<CrystalSystem.mono: 'Monoclinic'> symbol='P2/c' number=13 point_group='2/m' symprec=0.1 version='1.16.2',mono,7.888244011024899,151.67047904498918,118.27458712943337,41.214264097115745,0.34390035257371976,False,True
1494,NiPS,"[Element Ni, Element P, Element S]",Ni1 P1 S1,crystal_system=<CrystalSystem.cubic: 'Cubic'> symbol='P2_13' number=198 point_group='23' symprec=0.1 version='1.16.2',cubic,4.7843453877891795,169.00202161707915,118.2835328337613,61.34086025159998,0.27892076244641956,True,True
1495,AlAu2,"[Element Al, Element Au]",Al1 Au2,crystal_system=<CrystalSystem.ortho: 'Orthorhombic'> symbol='Pnma' number=62 point_group='mmm' symprec=0.1 version='1.16.2',ortho,14.150474368271912,197.5750765689593,118.3886732527912,32.35133218481154,0.37477464419623724,True,True
1496,Zr3Au,"[Element Au, Element Zr]",Zr3 Au1,crystal_system=<CrystalSystem.cubic: 'Cubic'> symbol='Pm-3n' number=223 point_group='m-3m' symprec=0.1 version='1.16.2',cubic,9.353539230398576,167.10545833460253,118.4344644478656,51.78350761558247,0.3091924322783292,True,True
1497,ScInPd2,"[Element In, Element Pd, Element Sc]",Sc1 In1 Pd2,crystal_system=<CrystalSystem.cubic: 'Cubic'> symbol='Fm-3m' number=225 point_group='m-3m' symprec=0.1 version='1.16.2',cubic,8.832134895216258,70.0555375314503,118.48202112097081,35.81329515770605,0.36269991613829183,True,True
1498,MgCo2,"[Element Co, Element Mg]",Mg1 Co2,crystal_system=<CrystalSystem.hex_: 'Hexagonal'> symbol='P6_3/mmc' number=194 point_group='6/mmm' symprec=0.1 version='1.16.2',hex_,6.003121362555703,157.3055968652401,118.52094744807833,56.87866160355932,0.2931391686125306,True,True
1499,Zr2InC,"[Element C, Element In, Element Zr]",Zr2 In1 C1,crystal_system=<CrystalSystem.hex_: 'Hexagonal'> symbol='P6_3/mmc' number=194 point_group='6/mmm' symprec=0.1 version='1.16.2',hex_,6.974084229991432,147.27841700866844,118.5354542671274,82.38977276636051,0.21784075448668763,True,True
1500,Ti3Hg,"[Element Hg, Element Ti]",Ti3 Hg1,crystal_system=<CrystalSystem.cubic: 'Cubic'> symbol='Pm-3n' number=223 point_group='m-3m' symprec=0.1 version='1.16.2',cubic,8.238049416590465,138.7567791766582,118.55301099596335,67.8522254291895,0.2596797343140484,True,True
1501,LiAl2Rh,"[Element Al, Element Li, Element Rh]",Li1 Al2 Rh1,crystal_system=<CrystalSystem.cubic: 'Cubic'> symbol='Fm-3m' number=225 point_group='m-3m' symprec=0.1 version='1.16.2',cubic,5.063891331618258,53.71604258673976,118.57504740439242,56.77795031205132,0.2935362740029199,True,True
1502,ScSnPt,"[Element Pt, Element Sc, Element Sn]",Sc1 Sn1 Pt1,crystal_system=<CrystalSystem.hex_: 'Hexagonal'> symbol='P-62c' number=190 point_group='-6m2' symprec=0.1 version='1.16.2',hex_,10.151360587247632,352.1015171682504,118.61305986986142,56.22493020239888,0.295329432252472,True,True
1503,MgZrPd2,"[Element Mg, Element Pd, Element Zr]",Mg1 Zr1 Pd2,crystal_system=<CrystalSystem.cubic: 'Cubic'> symbol='Fm-3m' number=225 point_group='m-3m' symprec=0.1 version='1.16.2',cubic,7.870014426922866,69.28444132135763,118.68862730594681,34.622684617932464,0.36707052272505286,True,False
1504,Ba3Zr2O7,"[Element Ba, Element O, Element Zr]",Ba3 Zr2 O7,crystal_system=<CrystalSystem.tet: 'Tetragonal'> symbol='I4/mmm' number=139 point_group='4/mmm' symprec=0.1 version='1.16.2',tet,6.028274898220201,194.5906578283986,118.82670139806615,65.9782068150318,0.2657347301651609,False,False
1505,LiScO2,"[Element Li, Element O, Element Sc]",Li1 Sc1 O2,crystal_system=<CrystalSystem.tet: 'Tetragonal'> symbol='I4_1/amd' number=141 point_group='4/mmm' symprec=0.1 version='1.16.2',tet,3.4307219792216075,81.21445464830744,118.96700272541918,78.72554591227947,0.2289230471372531,False,True
1506,NbZn3,"[Element Nb, Element Zn]",Nb1 Zn3,crystal_system=<CrystalSystem.cubic: 'Cubic'> symbol='Pm-3m' number=221 point_group='m-3m' symprec=0.1 version='1.16.2',cubic,8.031979041751773,59.7757128663261,118.98449708202364,71.4865287769588,0.24972040856576763,True,True
1507,Hf2Ga,"[Element Ga, Element Hf]",Hf2 Ga1,crystal_system=<CrystalSystem.tet: 'Tetragonal'> symbol='I4/mcm' number=140 point_group='4/mmm' symprec=0.1 version='1.16.2',tet,12.125597851620531,116.86961913234231,118.99267465063977,63.15664992347083,0.27451283891578027,True,True
1508,Mg2PtRh,"[Element Mg, Element Pt, Element Rh]",Mg2 Pt1 Rh1,crystal_system=<CrystalSystem.cubic: 'Cubic'> symbol='Fm-3m' number=225 point_group='m-3m' symprec=0.1 version='1.16.2',cubic,9.645481350931496,59.669599605668694,119.07535656645271,59.09670045597379,0.2870761413052502,True,False
1509,Zr6Sb2Pt,"[Element Pt, Element Sb, Element Zr]",Zr6 Sb2 Pt1,crystal_system=<CrystalSystem.hex_: 'Hexagonal'> symbol='P-62m' number=189 point_group='-6m2' symprec=0.1 version='1.16.2',hex_,8.2472599652806,198.51504360581092,119.09327603478923,59.45669870198935,0.28599176622109435,True,True
1510,Sc2ZnIr,"[Element Ir, Element Sc, Element Zn]",Sc2 Zn1 Ir1,crystal_system=<CrystalSystem.cubic: 'Cubic'> symbol='Fm-3m' number=225 point_group='m-3m' symprec=0.1 version='1.16.2',cubic,8.293057188683425,69.58834609999516,119.11722035727766,43.56960001722376,0.3369894381547442,True,False
1511,TiAs,"[Element As, Element Ti]",Ti1 As1,crystal_system=<CrystalSystem.hex_: 'Hexagonal'> symbol='P6_3/mmc' number=194 point_group='6/mmm' symprec=0.1 version='1.16.2',hex_,5.887348034985194,138.5311457868541,119.23663183625246,71.63663310859903,0.24972442421057775,True,True