,Formula,Elements,Composition,Symmetry,Crystal system,Density [g/m$^3$],Volume [$\mathring{A}^3$],Bulk modulus[GPa],Shear modulus [GPa],Poisson,Metal,Experimental report
2473,MgAlIr2,"[Element Al, Element Ir, Element Mg]",Mg1 Al1 Ir2,crystal_system=<CrystalSystem.cubic: 'Cubic'> symbol='Fm-3m' number=225 point_group='m-3m' symprec=0.1 version='1.16.2',cubic,12.996772732602203,55.6700491230663,188.81378548155453,107.27803054085959,0.2611512316258354,True,False
2474,Mg(PtO2)3,"[Element Mg, Element O, Element Pt]",Mg1 Pt3 O6,crystal_system=<CrystalSystem.ortho: 'Orthorhombic'> symbol='Cmmm' number=65 point_group='mmm' symprec=0.1 version='1.16.2',ortho,10.401985589608127,112.63224450559863,189.0602179556989,71.64572328454948,0.3317718416606441,False,True
2475,Be2CuIr,"[Element Be, Element Cu, Element Ir]",Be2 Cu1 Ir1,crystal_system=<CrystalSystem.cubic: 'Cubic'> symbol='Fm-3m' number=225 point_group='m-3m' symprec=0.1 version='1.16.2',cubic,11.110744172437856,40.91846655881386,189.11401564826264,74.10082115323283,0.32671686402963657,True,False
2476,FeCo,"[Element Co, Element Fe]",Fe1 Co1,crystal_system=<CrystalSystem.cubic: 'Cubic'> symbol='Pm-3m' number=221 point_group='m-3m' symprec=0.1 version='1.16.2',cubic,8.32914327631918,22.88274681661618,189.17969792095255,90.71880830523652,0.293275231439944,True,True
2477,HfGaRh2,"[Element Ga, Element Hf, Element Rh]",Hf1 Ga1 Rh2,crystal_system=<CrystalSystem.cubic: 'Cubic'> symbol='Fm-3m' number=225 point_group='m-3m' symprec=0.1 version='1.16.2',cubic,12.33745786912749,61.10858469965467,189.3129068244944,89.07170055713561,0.2966431786178977,True,False
2478,NiMoP2,"[Element Mo, Element Ni, Element P]",Ni1 Mo1 P2,crystal_system=<CrystalSystem.hex_: 'Hexagonal'> symbol='P6_3/mmc' number=194 point_group='6/mmm' symprec=0.1 version='1.16.2',hex_,6.7283432159184215,106.90331151105948,189.32270113267455,104.385884746762,0.26711846753197943,True,True
2479,Hf2CoIr,"[Element Co, Element Hf, Element Ir]",Hf2 Co1 Ir1,crystal_system=<CrystalSystem.cubic: 'Cubic'> symbol='Fm-3m' number=225 point_group='m-3m' symprec=0.1 version='1.16.2',cubic,15.074787372954082,66.98760794386509,189.4277825870017,38.80082210849464,0.40412987843966836,True,False
2480,TiRh,"[Element Rh, Element Ti]",Ti1 Rh1,crystal_system=<CrystalSystem.tet: 'Tetragonal'> symbol='P4/mmm' number=123 point_group='4/mmm' symprec=0.1 version='1.16.2',tet,8.488259808163635,58.99056628265778,189.53405935664387,49.37352287849583,0.38015664013312983,True,True
2481,TiZnCo2,"[Element Co, Element Ti, Element Zn]",Ti1 Zn1 Co2,crystal_system=<CrystalSystem.cubic: 'Cubic'> symbol='Fm-3m' number=225 point_group='m-3m' symprec=0.1 version='1.16.2',cubic,8.081494667011704,47.493809543553006,189.6289841492229,89.14424616442346,0.29679326826954805,True,False
2482,TiGaFe2,"[Element Fe, Element Ga, Element Ti]",Ti1 Ga1 Fe2,crystal_system=<CrystalSystem.cubic: 'Cubic'> symbol='Fm-3m' number=225 point_group='m-3m' symprec=0.1 version='1.16.2',cubic,7.859717771676713,48.44046672541363,189.69557035752018,100.0910620513722,0.27564019740797224,True,True
2483,MnGaCo2,"[Element Co, Element Ga, Element Mn]",Mn1 Ga1 Co2,crystal_system=<CrystalSystem.cubic: 'Cubic'> symbol='Fm-3m' number=225 point_group='m-3m' symprec=0.1 version='1.16.2',cubic,8.795930378442034,45.78552389714622,189.7105148311961,79.96827152765223,0.31520190834940376,True,True
2484,HfSiRh,"[Element Hf, Element Rh, Element Si]",Hf1 Si1 Rh1,crystal_system=<CrystalSystem.ortho: 'Orthorhombic'> symbol='Pnma' number=62 point_group='mmm' symprec=0.1 version='1.16.2',ortho,10.993960810632332,186.97730498490893,189.71124115919724,97.27152238447792,0.2810532187693548,True,True
2485,Ti2MnRh,"[Element Mn, Element Rh, Element Ti]",Ti2 Mn1 Rh1,crystal_system=<CrystalSystem.cubic: 'Cubic'> symbol='Fm-3m' number=225 point_group='m-3m' symprec=0.1 version='1.16.2',cubic,7.595639040676294,55.4364705365894,189.7642702639613,81.31389619551928,0.3125275331727552,True,False
2486,Ti2CrIr,"[Element Cr, Element Ir, Element Ti]",Ti2 Cr1 Ir1,crystal_system=<CrystalSystem.cubic: 'Cubic'> symbol='Fm-3m' number=225 point_group='m-3m' symprec=0.1 version='1.16.2',cubic,9.744387405132874,57.93031584828285,189.82577986937812,79.20752596451467,0.3168428226826486,True,False
2487,ScRu2,"[Element Ru, Element Sc]",Sc1 Ru2,crystal_system=<CrystalSystem.hex_: 'Hexagonal'> symbol='P6_3/mmc' number=194 point_group='6/mmm' symprec=0.1 version='1.16.2',hex_,8.440005172326991,194.4607410519056,189.9095931047115,49.31834324592845,0.3804977647534174,True,True
2488,VPd2,"[Element Pd, Element V]",V1 Pd2,crystal_system=<CrystalSystem.ortho: 'Orthorhombic'> symbol='Immm' number=71 point_group='mmm' symprec=0.1 version='1.16.2',ortho,10.302328371447295,42.51655256983561,190.13594661325777,75.57426948992068,0.3245130900722452,True,True
2489,Fe9Co7,"[Element Co, Element Fe]",Fe9 Co7,crystal_system=<CrystalSystem.cubic: 'Cubic'> symbol='Pm-3m' number=221 point_group='m-3m' symprec=0.1 version='1.16.2',cubic,8.322944418684722,182.58218119015504,190.37169053354665,96.88578075828754,0.2824423866762615,True,True
2490,Mn2NbAl,"[Element Al, Element Mn, Element Nb]",Mn2 Nb1 Al1,crystal_system=<CrystalSystem.cubic: 'Cubic'> symbol='Fm-3m' number=225 point_group='m-3m' symprec=0.1 version='1.16.2',cubic,7.1009504653179345,53.7297245266498,190.4323786333032,99.31757660614775,0.2778510340870638,True,False
2491,Mn(PtO2)3,"[Element Mn, Element O, Element Pt]",Mn1 Pt3 O6,crystal_system=<CrystalSystem.ortho: 'Orthorhombic'> symbol='Cmmm' number=65 point_group='mmm' symprec=0.1 version='1.16.2',ortho,10.664274565314468,114.63192782000768,190.43929844503995,70.11149294657156,0.33604237451360447,False,True
2492,Hf2TcRh,"[Element Hf, Element Rh, Element Tc]",Hf2 Tc1 Rh1,crystal_system=<CrystalSystem.cubic: 'Cubic'> symbol='Fm-3m' number=225 point_group='m-3m' symprec=0.1 version='1.16.2',cubic,13.622130316843375,68.00629900700764,190.44117970133985,88.50310468873303,0.2988037338564992,True,False
2493,Hf(CoSi)2,"[Element Co, Element Hf, Element Si]",Hf1 Co2 Si2,crystal_system=<CrystalSystem.tet: 'Tetragonal'> symbol='I4/mmm' number=139 point_group='4/mmm' symprec=0.1 version='1.16.2',tet,8.976510445012737,65.21303648309892,190.49955126676366,105.5646631957103,0.2661267553289988,True,True
2494,HfCr2,"[Element Cr, Element Hf]",Hf1 Cr2,crystal_system=<CrystalSystem.cubic: 'Cubic'> symbol='Fd-3m' number=227 point_group='m-3m' symprec=0.1 version='1.16.2',cubic,10.713191104553674,87.56918907564969,190.51635946914567,68.17370399608633,0.3401486412443793,True,True
2495,Ti2FeIr,"[Element Fe, Element Ir, Element Ti]",Ti2 Fe1 Ir1,crystal_system=<CrystalSystem.cubic: 'Cubic'> symbol='Fm-3m' number=225 point_group='m-3m' symprec=0.1 version='1.16.2',cubic,10.004275097977548,57.06427335811901,190.56692895111098,72.32628977132886,0.3315452275305176,True,False
2496,TiBe2Ir,"[Element Be, Element Ir, Element Ti]",Ti1 Be2 Ir1,crystal_system=<CrystalSystem.cubic: 'Cubic'> symbol='Fm-3m' number=225 point_group='m-3m' symprec=0.1 version='1.16.2',cubic,9.429052035105357,45.455155008424335,190.62607895990794,70.32263227767453,0.3357461761848558,True,False
2497,Al2Os,"[Element Al, Element Os]",Al2 Os1,crystal_system=<CrystalSystem.tet: 'Tetragonal'> symbol='I4/mmm' number=139 point_group='4/mmm' symprec=0.1 version='1.16.2',tet,9.810988203359589,41.330407913956776,190.91157563193826,141.5669341225515,0.20271607533281766,False,True
2498,V2H,"[Element H, Element V]",V2 H1,crystal_system=<CrystalSystem.mono: 'Monoclinic'> symbol='C2/m' number=12 point_group='2/m' symprec=0.1 version='1.16.2',mono,5.978560817700777,28.577851874207987,191.02887797305164,51.79595203279222,0.3756663574952577,True,True
2499,BeGeN2,"[Element Be, Element Ge, Element N]",Be1 Ge1 N2,crystal_system=<CrystalSystem.ortho: 'Orthorhombic'> symbol='Pna2_1' number=33 point_group='mm2' symprec=0.1 version='1.16.2',ortho,4.9385803432431254,147.49500505470326,191.09729885178584,144.456335901023,0.19810513763305848,False,True
2500,ScGaIr2,"[Element Ga, Element Ir, Element Sc]",Sc1 Ga1 Ir2,crystal_system=<CrystalSystem.cubic: 'Cubic'> symbol='Fm-3m' number=225 point_group='m-3m' symprec=0.1 version='1.16.2',cubic,13.750425864361572,60.27424148139057,191.11313677612034,86.91518666359386,0.3025416550080009,True,False
2501,GaFeCo2,"[Element Co, Element Fe, Element Ga]",Ga1 Fe1 Co2,crystal_system=<CrystalSystem.cubic: 'Cubic'> symbol='Fm-3m' number=225 point_group='m-3m' symprec=0.1 version='1.16.2',cubic,8.881916014299259,45.51183709665288,191.11803769188808,81.13560142818616,0.314048411387887,True,True
2502,CuBIr,"[Element B, Element Cu, Element Ir]",Cu1 B1 Ir1,crystal_system=<CrystalSystem.ortho: 'Orthorhombic'> symbol='Fdd2' number=43 point_group='mm2' symprec=0.1 version='1.16.2',ortho,12.571064451566716,140.84934266156296,191.165692447766,67.85407460456678,0.34130205177346606,True,True
2503,ScB2,"[Element B, Element Sc]",Sc1 B2,crystal_system=<CrystalSystem.hex_: 'Hexagonal'> symbol='P6/mmm' number=191 point_group='6/mmm' symprec=0.1 version='1.16.2',hex_,3.649688167418437,30.29169035196145,191.32624987719785,194.29255521629915,0.1206563606040842,True,True
2504,ZrSiRu,"[Element Ru, Element Si, Element Zr]",Zr1 Si1 Ru1,crystal_system=<CrystalSystem.hex_: 'Hexagonal'> symbol='P-62m' number=189 point_group='-6m2' symprec=0.1 version='1.16.2',hex_,7.6809009032967275,142.9319713280139,191.45450892047108,100.1542943564979,0.2772758008294563,True,True
2505,PuO2,"[Element O, Element Pu]",Pu1 O2,crystal_system=<CrystalSystem.cubic: 'Cubic'> symbol='Fm-3m' number=225 point_group='m-3m' symprec=0.1 version='1.16.2',cubic,11.847447493400841,38.68401104879359,191.50431212632262,76.051257644244,0.3246493005388247,True,True
2506,TiMn2V,"[Element Mn, Element Ti, Element V]",Ti1 Mn2 V1,crystal_system=<CrystalSystem.cubic: 'Cubic'> symbol='Fm-3m' number=225 point_group='m-3m' symprec=0.1 version='1.16.2',cubic,6.581363616761673,52.653057097445625,191.580852367403,82.47880122174266,0.3117556584768934,True,False
2507,Hf2MoIr,"[Element Hf, Element Ir, Element Mo]",Hf2 Mo1 Ir1,crystal_system=<CrystalSystem.cubic: 'Cubic'> symbol='Fm-3m' number=225 point_group='m-3m' symprec=0.1 version='1.16.2',cubic,15.394966563404298,69.58606810849952,191.6444977535577,80.47140172142298,0.315828194897092,True,False
2508,ZrMo2,"[Element Mo, Element Zr]",Zr1 Mo2,crystal_system=<CrystalSystem.cubic: 'Cubic'> symbol='Fd-3m' number=227 point_group='m-3m' symprec=0.1 version='1.16.2',cubic,8.553251598173365,109.92433614629603,191.66038145065193,58.91797284432809,0.3605819808404519,True,True
2509,MgNi3B2,"[Element B, Element Mg, Element Ni]",Mg1 Ni3 B2,crystal_system=<CrystalSystem.hex_: 'Hexagonal'> symbol='P6_422' number=181 point_group='622' symprec=0.1 version='1.16.2',hex_,6.260088226910709,176.66761967430227,191.72349977066543,86.34529303469961,0.304210358920396,True,True
2510,MnAlCo2,"[Element Al, Element Co, Element Mn]",Mn1 Al1 Co2,crystal_system=<CrystalSystem.cubic: 'Cubic'> symbol='Fm-3m' number=225 point_group='m-3m' symprec=0.1 version='1.16.2',cubic,7.3221584778691575,45.30800789469671,191.796037740754,104.02834577705248,0.27032861568380673,True,True
2511,Cd(PtO2)3,"[Element Cd, Element O, Element Pt]",Cd1 Pt3 O6,crystal_system=<CrystalSystem.ortho: 'Orthorhombic'> symbol='Cmmm' number=65 point_group='mmm' symprec=0.1 version='1.16.2',ortho,11.145619979204346,118.24397761033273,191.9235966844704,70.35640858329506,0.33666588699931693,False,True
2512,Ti2RePd,"[Element Pd, Element Re, Element Ti]",Ti2 Re1 Pd1,crystal_system=<CrystalSystem.cubic: 'Cubic'> symbol='Fm-3m' number=225 point_group='m-3m' symprec=0.1 version='1.16.2',cubic,10.601716982505216,60.82869534321915,191.9238396116223,73.42202270866053,0.3303540823879152,True,False
2513,HfTc,"[Element Hf, Element Tc]",Hf1 Tc1,crystal_system=<CrystalSystem.cubic: 'Cubic'> symbol='Pm-3m' number=221 point_group='m-3m' symprec=0.1 version='1.16.2',cubic,13.407090572120618,34.24474863166483,191.94310043078005,75.81450746398082,0.3254847822263329,True,True
2514,TiPt,"[Element Pt, Element Ti]",Ti1 Pt1,crystal_system=<CrystalSystem.ortho: 'Orthorhombic'> symbol='Pmma' number=51 point_group='mmm' symprec=0.1 version='1.16.2',ortho,13.063209422970974,61.76577496493726,192.03257283516842,15.296630582727914,0.46120195279263887,True,True
2515,NbAlCo2,"[Element Al, Element Co, Element Nb]",Nb1 Al1 Co2,crystal_system=<CrystalSystem.cubic: 'Cubic'> symbol='Fm-3m' number=225 point_group='m-3m' symprec=0.1 version='1.16.2',cubic,7.505054773598629,52.60458845305241,192.04441162696884,89.98744562065465,0.2973622912752885,True,True
2516,Fe2O3,"[Element Fe, Element O]",Fe2 O3,crystal_system=<CrystalSystem.trig: 'Trigonal'> symbol='R-3c' number=167 point_group='-3m' symprec=0.1 version='1.16.2',trig,5.143372282900504,103.1107530196113,192.13813061359554,86.07764080662618,0.3051048845161632,True,True
2517,HfSiPt,"[Element Hf, Element Pt, Element Si]",Hf1 Si1 Pt1,crystal_system=<CrystalSystem.ortho: 'Orthorhombic'> symbol='Pnma' number=62 point_group='mmm' symprec=0.1 version='1.16.2',ortho,13.933138571769911,191.47768832856673,192.14551169121927,100.93137339934117,0.2764921275347861,True,True
2518,Be2CoNi,"[Element Be, Element Co, Element Ni]",Be2 Co1 Ni1,crystal_system=<CrystalSystem.cubic: 'Cubic'> symbol='Fm-3m' number=225 point_group='m-3m' symprec=0.1 version='1.16.2',cubic,6.6068536037305226,34.09394703616054,192.18420454324456,124.91661421206706,0.23288219371419322,True,False
2519,AlVCo2,"[Element Al, Element Co, Element V]",Al1 V1 Co2,crystal_system=<CrystalSystem.cubic: 'Cubic'> symbol='Fm-3m' number=225 point_group='m-3m' symprec=0.1 version='1.16.2',cubic,6.948257301087539,46.79101261358072,192.22448609813011,98.23103632603923,0.2816779178927717,True,True
2520,HfMn2,"[Element Hf, Element Mn]",Hf1 Mn2,crystal_system=<CrystalSystem.hex_: 'Hexagonal'> symbol='P6_3/mmc' number=194 point_group='6/mmm' symprec=0.1 version='1.16.2',hex_,11.253471046497738,170.202831090667,192.32277066460006,53.20979421618672,0.37334581995509003,True,True
2521,Be2PdPt,"[Element Be, Element Pd, Element Pt]",Be2 Pd1 Pt1,crystal_system=<CrystalSystem.cubic: 'Cubic'> symbol='Fm-3m' number=225 point_group='m-3m' symprec=0.1 version='1.16.2',cubic,11.775358002187824,45.059295115291036,192.36683251461534,19.916466590545152,0.44996004857394173,True,False
2522,TiBeCo2,"[Element Be, Element Co, Element Ti]",Ti1 Be1 Co2,crystal_system=<CrystalSystem.cubic: 'Cubic'> symbol='Fm-3m' number=225 point_group='m-3m' symprec=0.1 version='1.16.2',cubic,6.805302028746559,42.6390846130908,192.4092439865268,101.63586177477112,0.27542794448067887,True,False
2523,Ti2ReNi,"[Element Ni, Element Re, Element Ti]",Ti2 Re1 Ni1,crystal_system=<CrystalSystem.cubic: 'Cubic'> symbol='Fm-3m' number=225 point_group='m-3m' symprec=0.1 version='1.16.2',cubic,9.911206405134026,57.07042165269104,192.46332898348885,78.75119113347155,0.3199674237103044,True,False
2524,TiNi3,"[Element Ni, Element Ti]",Ti1 Ni3,crystal_system=<CrystalSystem.hex_: 'Hexagonal'> symbol='P6_3/mmc' number=194 point_group='6/mmm' symprec=0.1 version='1.16.2',hex_,8.170464969881639,182.05723949689516,192.48387431628998,97.28673895879678,0.28372341536116086,True,True
2525,Ti2MoPt,"[Element Mo, Element Pt, Element Ti]",Ti2 Mo1 Pt1,crystal_system=<CrystalSystem.cubic: 'Cubic'> symbol='Fm-3m' number=225 point_group='m-3m' symprec=0.1 version='1.16.2',cubic,10.461961320101839,61.38684216754791,192.5305142937992,89.42226846750262,0.29890460974114413,True,False
2526,ZrCoP,"[Element Co, Element P, Element Zr]",Zr1 Co1 P1,crystal_system=<CrystalSystem.ortho: 'Orthorhombic'> symbol='Pnma' number=62 point_group='mmm' symprec=0.1 version='1.16.2',ortho,7.275062847604089,165.37315845632838,192.6648961727996,114.96352825353239,0.25114619004935707,True,True
2527,LiTiIr2,"[Element Ir, Element Li, Element Ti]",Li1 Ti1 Ir2,crystal_system=<CrystalSystem.cubic: 'Cubic'> symbol='Fm-3m' number=225 point_group='m-3m' symprec=0.1 version='1.16.2',cubic,13.500455360777327,54.02621476091612,192.70882883085517,78.87929517905127,0.3199118697745117,True,False
2528,TiZnRh2,"[Element Rh, Element Ti, Element Zn]",Ti1 Zn1 Rh2,crystal_system=<CrystalSystem.cubic: 'Cubic'> symbol='Fm-3m' number=225 point_group='m-3m' symprec=0.1 version='1.16.2',cubic,9.55349176276117,55.46207002653592,192.76180412799542,82.7212303583199,0.31228351197394366,True,False
2529,BeVCo2,"[Element Be, Element Co, Element V]",Be1 V1 Co2,crystal_system=<CrystalSystem.cubic: 'Cubic'> symbol='Fm-3m' number=225 point_group='m-3m' symprec=0.1 version='1.16.2',cubic,7.219074590885052,40.90235842062743,192.96709576797508,56.625576850076314,0.3663496854878315,True,False
2530,AlFeRh2,"[Element Al, Element Fe, Element Rh]",Al1 Fe1 Rh2,crystal_system=<CrystalSystem.cubic: 'Cubic'> symbol='Fm-3m' number=225 point_group='m-3m' symprec=0.1 version='1.16.2',cubic,8.991793573380052,53.3034822275615,193.02723758279456,37.61478812431548,0.4085089957432398,True,False
2531,Hf2IrRh,"[Element Hf, Element Ir, Element Rh]",Hf2 Ir1 Rh1,crystal_system=<CrystalSystem.cubic: 'Cubic'> symbol='Fm-3m' number=225 point_group='m-3m' symprec=0.1 version='1.16.2',cubic,15.702214466080632,68.9610805543793,193.09210622874167,16.003309026464716,0.459674474948968,True,False
2532,TiAlRh2,"[Element Al, Element Rh, Element Ti]",Ti1 Al1 Rh2,crystal_system=<CrystalSystem.cubic: 'Cubic'> symbol='Fm-3m' number=225 point_group='m-3m' symprec=0.1 version='1.16.2',cubic,8.288560146485175,56.227634235948805,193.19441109176552,-2.0684993716499314,0.5053725885684375,True,False
2533,SiNi2,"[Element Ni, Element Si]",Si1 Ni2,crystal_system=<CrystalSystem.ortho: 'Orthorhombic'> symbol='Pnma' number=62 point_group='mmm' symprec=0.1 version='1.16.2',ortho,7.57250288216039,127.59978623566468,193.20382176806618,63.71025709504826,0.3514500873899229,True,True
2534,P2Ir,"[Element Ir, Element P]",P2 Ir1,crystal_system=<CrystalSystem.mono: 'Monoclinic'> symbol='P2_1/c' number=14 point_group='2/m' symprec=0.1 version='1.16.2',mono,9.202463695856821,183.4509259235919,193.22799430150368,128.530965044757,0.22777128169152086,False,True
2535,Ti2CoIr,"[Element Co, Element Ir, Element Ti]",Ti2 Co1 Ir1,crystal_system=<CrystalSystem.cubic: 'Cubic'> symbol='Fm-3m' number=225 point_group='m-3m' symprec=0.1 version='1.16.2',cubic,10.089475728664052,57.09065296100003,193.29479532046963,64.21950962582281,0.35044452440252594,True,False
2536,CoP,"[Element Co, Element P]",Co1 P1,crystal_system=<CrystalSystem.ortho: 'Orthorhombic'> symbol='Pnma' number=62 point_group='mmm' symprec=0.1 version='1.16.2',ortho,6.6468688332074155,89.8432138222804,193.33211129562036,111.06980569769152,0.25891640611028227,True,True
2537,Zn(PtO2)3,"[Element O, Element Pt, Element Zn]",Zn1 Pt3 O6,crystal_system=<CrystalSystem.ortho: 'Orthorhombic'> symbol='Cmmm' number=65 point_group='mmm' symprec=0.1 version='1.16.2',ortho,10.989845397667144,112.81812775356885,193.42679409608343,65.3096056552332,0.3482559979052435,False,True
2538,VFe3,"[Element Fe, Element V]",V1 Fe3,crystal_system=<CrystalSystem.cubic: 'Cubic'> symbol='Fm-3m' number=225 point_group='m-3m' symprec=0.1 version='1.16.2',cubic,7.495546532456304,48.40057516995339,193.4820236253666,90.12363358247433,0.29840209082684127,True,False
2539,Ta2AlC,"[Element Al, Element C, Element Ta]",Ta2 Al1 C1,crystal_system=<CrystalSystem.hex_: 'Hexagonal'> symbol='P6_3/mmc' number=194 point_group='6/mmm' symprec=0.1 version='1.16.2',hex_,11.627177612733817,114.50589389420483,193.56499965538382,121.7668258149694,0.23998553048862714,True,True
2540,Be2NiRh,"[Element Be, Element Ni, Element Rh]",Be2 Ni1 Rh1,crystal_system=<CrystalSystem.cubic: 'Cubic'> symbol='Fm-3m' number=225 point_group='m-3m' symprec=0.1 version='1.16.2',cubic,7.729662686301186,38.58789953031376,193.64336324485757,107.36019103498049,0.2660285332339471,True,False